                         Program Version 4.2.0 -  RELEASE  -
|  1> #
|  2> # 02_ScF wb97x-v/aug-cc-pvtz
|  3> #
|  4> ! wb97x-v aug-cc-pvtz def2/jk grid4 nofinalgrid
|  5>
|  6> *xyz 0 1
|  7>   Sc  0.00000000000000      0.00000000000000      0.10357126289626
|  8>   F   0.00000000000000      0.00000000000000      1.89642873710374
|  9> *
| 10>
| 11> %pal
| 12> nprocs 24
| 13> end
| 14>
| 15>
| 16>                          ****END OF INPUT****

CARTESIAN COORDINATES (ANGSTROEM)
---------------------------------
  Sc     0.000000    0.000000    0.103571
  F      0.000000    0.000000    1.896429

 Total Charge           Charge          ....    0
 Multiplicity           Mult            ....    1
 Number of Electrons    NEL             ....   30
 Basis Dimension        Dim             ....  139

ORBITAL ENERGIES
----------------

  NO   OCC          E(Eh)            E(eV)
   0   2.0000    -161.736794     -4401.0819
   1   2.0000     -24.742618      -673.2809
   2   2.0000     -17.792957      -484.1710
   3   2.0000     -14.712425      -400.3454
   4   2.0000     -14.712425      -400.3454
   5   2.0000     -14.700430      -400.0190
   6   2.0000      -2.306450       -62.7617
   7   2.0000      -1.500966       -40.8434
   8   2.0000      -1.489015       -40.5182
   9   2.0000      -1.489015       -40.5182
  10   2.0000      -1.246233       -33.9117
  11   2.0000      -0.545011       -14.8305
  12   2.0000      -0.531268       -14.4565
  13   2.0000      -0.531268       -14.4565
  14   2.0000      -0.253786        -6.9059
  15   0.0000      -0.008354        -0.2273
  16   0.0000      -0.008354        -0.2273
  17   0.0000      -0.002629        -0.0715
  18   0.0000      -0.002629        -0.0715
  19   0.0000      -0.000205        -0.0056

MULLIKEN ATOMIC CHARGES
-----------------------
   0 Sc:    0.633556
   1 F :   -0.633556
Sum of atomic charges:   -0.0000000

LOEWDIN ATOMIC CHARGES
----------------------
   0 Sc:    0.392528
   1 F :   -0.392528

  Mayer bond orders larger than 0.100000
B(  0-Sc,  1-F ) :   0.7711

FINAL SINGLE POINT ENERGY      -860.465797467720

DIPOLE MOMENT
-------------
                                X             Y             Z
Electronic contribution:     -0.00000      -0.00000      -1.11736
Nuclear contribution   :      0.00000       0.00000       0.30099
                        -----------------------------------------
Total Dipole Moment    :     -0.00000      -0.00000      -0.81637
                        -----------------------------------------
Magnitude (a.u.)       :      0.81637
Magnitude (Debye)      :      2.07504

Rotational constants in cm-1:     0.000000     0.392705     0.392705
Rotational constants in MHz :     0.000000 11772.989606 11772.989606

                             ****ORCA TERMINATED NORMALLY****
TOTAL RUN TIME: 0 days 0 hours 3 minutes 8 seconds 919 msec
