                         Program Version 4.2.0 -  RELEASE  -
|  1> #
|  2> # 05_ScO wb97x-v/aug-cc-pvtz
|  3> #
|  4> ! wb97x-v aug-cc-pvtz def2/jk grid4 nofinalgrid
|  5>
|  6> *xyz 0 2
|  7>   Sc  0.00000000000000      0.00000000000000      0.16492994527036
|  8>   O   0.00000000000000      0.00000000000000      1.83507005472964
|  9> *
| 10>
| 11> %pal
| 12> nprocs 24
| 13> end
| 14>
| 15>
| 16>                          ****END OF INPUT****

CARTESIAN COORDINATES (ANGSTROEM)
---------------------------------
  Sc     0.000000    0.000000    0.164930
  O      0.000000    0.000000    1.835070

 Total Charge           Charge          ....    0
 Multiplicity           Mult            ....    2
 Number of Electrons    NEL             ....   29
 Basis Dimension        Dim             ....  139

ORBITAL ENERGIES
----------------
                 SPIN UP ORBITALS
  NO   OCC          E(Eh)            E(eV)
   0   1.0000    -161.665721     -4399.1479
   1   1.0000     -19.157735      -521.3085
   2   1.0000     -17.706859      -481.8281
   3   1.0000     -14.626486      -398.0069
   4   1.0000     -14.626486      -398.0069
   5   1.0000     -14.618328      -397.7849
   6   1.0000      -2.235034       -60.8184
   7   1.0000      -1.437232       -39.1091
   8   1.0000      -1.422824       -38.7170
   9   1.0000      -1.422824       -38.7170
  10   1.0000      -0.941361       -25.6157
  11   1.0000      -0.394163       -10.7257
  12   1.0000      -0.394163       -10.7257
  13   1.0000      -0.388175       -10.5628
  14   1.0000      -0.238902        -6.5009
  15   0.0000      -0.002294        -0.0624
  16   0.0000      -0.002294        -0.0624
  17   0.0000       0.012545         0.3414
  18   0.0000       0.022479         0.6117
  19   0.0000       0.026691         0.7263

                 SPIN DOWN ORBITALS
  NO   OCC          E(Eh)            E(eV)
   0   1.0000    -161.664744     -4399.1213
   1   1.0000     -19.158276      -521.3232
   2   1.0000     -17.705214      -481.7834
   3   1.0000     -14.625370      -397.9766
   4   1.0000     -14.625370      -397.9766
   5   1.0000     -14.616668      -397.7397
   6   1.0000      -2.230080       -60.6836
   7   1.0000      -1.430277       -38.9198
   8   1.0000      -1.419576       -38.6286
   9   1.0000      -1.419576       -38.6286
  10   1.0000      -0.942295       -25.6412
  11   1.0000      -0.394966       -10.7476
  12   1.0000      -0.394966       -10.7476
  13   1.0000      -0.388921       -10.5831
  14   0.0000      -0.009861        -0.2683
  15   0.0000       0.023865         0.6494
  16   0.0000       0.023865         0.6494
  17   0.0000       0.026461         0.7200
  18   0.0000       0.032121         0.8741

MULLIKEN ATOMIC CHARGES AND SPIN POPULATIONS
--------------------------------------------
   0 Sc:    0.847870    1.000508
   1 O :   -0.847870   -0.000508
Sum of atomic charges         :   -0.0000000

LOEWDIN ATOMIC CHARGES AND SPIN POPULATIONS
-------------------------------------------
   0 Sc:    0.712028    0.939370
   1 O :   -0.712028    0.060630

  Mayer bond orders larger than 0.100000
B(  0-Sc,  1-O ) :   1.9763

FINAL SINGLE POINT ENERGY      -835.832473438885

DIPOLE MOMENT
-------------
                                X             Y             Z
Electronic contribution:     -0.00000      -0.00000      -2.73555
Nuclear contribution   :      0.00000       0.00000       1.22710
                        -----------------------------------------
Total Dipole Moment    :     -0.00000      -0.00000      -1.50845
                        -----------------------------------------
Magnitude (a.u.)       :      1.50845
Magnitude (Debye)      :      3.83418

Rotational constants in cm-1:     0.000000     0.512165     0.512165
Rotational constants in MHz :     0.000000 15354.316375 15354.316375

                             ****ORCA TERMINATED NORMALLY****
TOTAL RUN TIME: 0 days 0 hours 3 minutes 12 seconds 302 msec
