                         Program Version 4.2.0 -  RELEASE  -
|  1> #
|  2> # 06_ScS wb97x-v/aug-cc-pvtz
|  3> #
|  4> ! wb97x-v aug-cc-pvtz def2/jk grid4 nofinalgrid
|  5>
|  6> *xyz 0 2
|  7>   Sc  0.00000000000000      0.00000000000000     -0.07079618847288
|  8>   S   0.00000000000000      0.00000000000000      2.07079618847288
|  9> *
| 10>
| 11> %pal
| 12> nprocs 24
| 13> end
| 14>
| 15>
| 16>                          ****END OF INPUT****

CARTESIAN COORDINATES (ANGSTROEM)
---------------------------------
  Sc     0.000000    0.000000   -0.070796
  S      0.000000    0.000000    2.070796

 Total Charge           Charge          ....    0
 Multiplicity           Mult            ....    2
 Number of Electrons    NEL             ....   37
 Basis Dimension        Dim             ....  143

ORBITAL ENERGIES
----------------
                 SPIN UP ORBITALS
  NO   OCC          E(Eh)            E(eV)
   0   1.0000    -161.701357     -4400.1176
   1   1.0000     -88.815860     -2416.8024
   2   1.0000     -17.744657      -482.8567
   3   1.0000     -14.664100      -399.0304
   4   1.0000     -14.664100      -399.0304
   5   1.0000     -14.655748      -398.8032
   6   1.0000      -7.973512      -216.9703
   7   1.0000      -5.926363      -161.2645
   8   1.0000      -5.926363      -161.2645
   9   1.0000      -5.925257      -161.2344
  10   1.0000      -2.268374       -61.7256
  11   1.0000      -1.455020       -39.5931
  12   1.0000      -1.455020       -39.5931
  13   1.0000      -1.450368       -39.4665
  14   1.0000      -0.727227       -19.7888
  15   1.0000      -0.346574        -9.4308
  16   1.0000      -0.327007        -8.8983
  17   1.0000      -0.327007        -8.8983
  18   1.0000      -0.257629        -7.0104
  19   0.0000      -0.011715        -0.3188
  20   0.0000      -0.011151        -0.3034
  21   0.0000      -0.011151        -0.3034
  22   0.0000       0.005729         0.1559
  23   0.0000       0.005729         0.1559

                 SPIN DOWN ORBITALS
  NO   OCC          E(Eh)            E(eV)
   0   1.0000    -161.700498     -4400.0942
   1   1.0000     -88.816118     -2416.8095
   2   1.0000     -17.741763      -482.7779
   3   1.0000     -14.662268      -398.9806
   4   1.0000     -14.662268      -398.9806
   5   1.0000     -14.652378      -398.7115
   6   1.0000      -7.973740      -216.9765
   7   1.0000      -5.926723      -161.2743
   8   1.0000      -5.926723      -161.2743
   9   1.0000      -5.925808      -161.2494
  10   1.0000      -2.258478       -61.4563
  11   1.0000      -1.448672       -39.4204
  12   1.0000      -1.448672       -39.4204
  13   1.0000      -1.431937       -38.9650
  14   1.0000      -0.728785       -19.8313
  15   1.0000      -0.345006        -9.3881
  16   1.0000      -0.327623        -8.9151
  17   1.0000      -0.327623        -8.9151
  18   0.0000      -0.031521        -0.8577
  19   0.0000       0.013239         0.3603
  20   0.0000       0.013535         0.3683
  21   0.0000       0.013535         0.3683
  22   0.0000       0.016023         0.4360

MULLIKEN ATOMIC CHARGES AND SPIN POPULATIONS
--------------------------------------------
   0 Sc:    0.340055    1.040998
   1 S :   -0.340055   -0.040998
Sum of atomic charges         :   -0.0000000

LOEWDIN ATOMIC CHARGES AND SPIN POPULATIONS
-------------------------------------------
   0 Sc:    0.126240    0.943778
   1 S :   -0.126240    0.056222

  Mayer bond orders larger than 0.100000
B(  0-Sc,  1-S ) :   2.4343

FINAL SINGLE POINT ENERGY     -1158.742578664521

DIPOLE MOMENT
-------------
                                X             Y             Z
Electronic contribution:      0.00000      -0.00000      -4.84897
Nuclear contribution   :      0.00000       0.00000       2.42233
                        -----------------------------------------
Total Dipole Moment    :      0.00000      -0.00000      -2.42664
                        -----------------------------------------
Magnitude (a.u.)       :      2.42664
Magnitude (Debye)      :      6.16803

Rotational constants in cm-1:     0.000000     0.196398     0.196398
Rotational constants in MHz :     0.000000  5887.862686  5887.862686

                             ****ORCA TERMINATED NORMALLY****
TOTAL RUN TIME: 0 days 0 hours 4 minutes 27 seconds 769 msec
