                         Program Version 4.2.0 -  RELEASE  -
|  1> #
|  2> # 08_TiF wb97x-v/aug-cc-pvtz
|  3> #
|  4> ! wb97x-v aug-cc-pvtz def2/jk grid4 nofinalgrid
|  5>
|  6> *xyz 0 4
|  7>   Ti  0.00000000000000      0.00000000000000      0.11041057480115
|  8>   F   0.00000000000000      0.00000000000000      1.88958942519885
|  9> *
| 10>
| 11> %pal
| 12> nprocs 24
| 13> end
| 14>
| 15>
| 16>                          ****END OF INPUT****

CARTESIAN COORDINATES (ANGSTROEM)
---------------------------------
  Ti     0.000000    0.000000    0.110411
  F      0.000000    0.000000    1.889589

 Total Charge           Charge          ....    0
 Multiplicity           Mult            ....    4
 Number of Electrons    NEL             ....   31
 Basis Dimension        Dim             ....  139

ORBITAL ENERGIES
----------------
                 SPIN UP ORBITALS
  NO   OCC          E(Eh)            E(eV)
   0   1.0000    -178.769740     -4864.5719
   1   1.0000     -24.708029      -672.3396
   2   1.0000     -19.921257      -542.0850
   3   1.0000     -16.638240      -452.7495
   4   1.0000     -16.622783      -452.3289
   5   1.0000     -16.622783      -452.3289
   6   1.0000      -2.484332       -67.6021
   7   1.0000      -1.612475       -43.8777
   8   1.0000      -1.592484       -43.3337
   9   1.0000      -1.592484       -43.3337
  10   1.0000      -1.226537       -33.3758
  11   1.0000      -0.517700       -14.0873
  12   1.0000      -0.499277       -13.5860
  13   1.0000      -0.499277       -13.5860
  14   1.0000      -0.277771        -7.5585
  15   1.0000      -0.277771        -7.5585
  16   1.0000      -0.247083        -6.7235
  17   0.0000       0.004582         0.1247
  18   0.0000       0.004582         0.1247
  19   0.0000       0.006425         0.1748
  20   0.0000       0.024654         0.6709
  21   0.0000       0.036074         0.9816

                 SPIN DOWN ORBITALS
  NO   OCC          E(Eh)            E(eV)
   0   1.0000    -178.768783     -4864.5459
   1   1.0000     -24.709170      -672.3707
   2   1.0000     -19.900272      -541.5139
   3   1.0000     -16.631599      -452.5688
   4   1.0000     -16.600049      -451.7103
   5   1.0000     -16.600049      -451.7103
   6   1.0000      -2.416135       -65.7464
   7   1.0000      -1.583723       -43.0953
   8   1.0000      -1.492564       -40.6147
   9   1.0000      -1.492564       -40.6147
  10   1.0000      -1.227654       -33.4062
  11   1.0000      -0.517870       -14.0919
  12   1.0000      -0.500973       -13.6322
  13   1.0000      -0.500973       -13.6322
  14   0.0000       0.009907         0.2696
  15   0.0000       0.029485         0.8023
  16   0.0000       0.029486         0.8023
  17   0.0000       0.030787         0.8377
  18   0.0000       0.041856         1.1390

MULLIKEN ATOMIC CHARGES AND SPIN POPULATIONS
--------------------------------------------
   0 Ti:    0.591607    3.024653
   1 F :   -0.591607   -0.024653
Sum of atomic charges         :   -0.0000000

LOEWDIN ATOMIC CHARGES AND SPIN POPULATIONS
-------------------------------------------
   0 Ti:    0.260196    2.948386
   1 F :   -0.260196    0.051614

  Mayer bond orders larger than 0.100000
B(  0-Ti,  1-F ) :   0.8095

FINAL SINGLE POINT ENERGY      -949.182173268180

DIPOLE MOMENT
-------------
                                X             Y             Z
Electronic contribution:     -0.00000      -0.00000      -1.82587
Nuclear contribution   :      0.00000       0.00000       0.66059
                        -----------------------------------------
Total Dipole Moment    :     -0.00000      -0.00000      -1.16528
                        -----------------------------------------
Magnitude (a.u.)       :      1.16528
Magnitude (Debye)      :      2.96191

Rotational constants in cm-1:     0.000000     0.391496     0.391496
Rotational constants in MHz :     0.000000 11736.757371 11736.757371

                             ****ORCA TERMINATED NORMALLY****
TOTAL RUN TIME: 0 days 0 hours 4 minutes 15 seconds 452 msec
