                         Program Version 4.2.0 -  RELEASE  -
|  1> #
|  2> # 16_VBr wb97x-v/aug-cc-pvtz
|  3> #
|  4> ! wb97x-v aug-cc-pvtz def2/jk grid4 nofinalgrid
|  5>
|  6> *xyz 0 5
|  7>   V   0.00000000000000      0.00000000000000     -0.18045152200616
|  8>   Br  0.00000000000000      0.00000000000000      2.18045152200616
|  9> *
| 10>
| 11> %pal
| 12> nprocs 24
| 13> end
| 14>
| 15>
| 16>                          ****END OF INPUT****

CARTESIAN COORDINATES (ANGSTROEM)
---------------------------------
  V      0.000000    0.000000   -0.180452
  Br     0.000000    0.000000    2.180452

 Total Charge           Charge          ....    0
 Multiplicity           Mult            ....    5
 Number of Electrons    NEL             ....   58
 Basis Dimension        Dim             ....  152

ORBITAL ENERGIES
----------------
                 SPIN UP ORBITALS
  NO   OCC          E(Eh)            E(eV)
   0   1.0000    -482.609975    -13132.4851
   1   1.0000    -196.770642     -5354.4014
   2   1.0000     -62.484221     -1700.2821
   3   1.0000     -56.288084     -1531.6766
   4   1.0000     -56.287542     -1531.6619
   5   1.0000     -56.287542     -1531.6619
   6   1.0000     -22.285552      -606.4207
   7   1.0000     -18.783397      -511.1222
   8   1.0000     -18.783392      -511.1221
   9   1.0000     -18.774101      -510.8693
  10   1.0000      -8.748279      -238.0528
  11   1.0000      -6.571469      -178.8188
  12   1.0000      -6.569237      -178.7580
  13   1.0000      -6.569237      -178.7580
  14   1.0000      -2.771445       -75.4148
  15   1.0000      -2.695240       -73.3412
  16   1.0000      -2.694458       -73.3199
  17   1.0000      -2.694458       -73.3199
  18   1.0000      -2.692611       -73.2697
  19   1.0000      -2.692582       -73.2689
  20   1.0000      -1.806313       -49.1523
  21   1.0000      -1.806302       -49.1520
  22   1.0000      -1.804321       -49.0981
  23   1.0000      -0.841902       -22.9093
  24   1.0000      -0.406563       -11.0632
  25   1.0000      -0.391257       -10.6467
  26   1.0000      -0.391242       -10.6462
  27   1.0000      -0.356531        -9.7017
  28   1.0000      -0.317852        -8.6492
  29   1.0000      -0.317831        -8.6486
  30   1.0000      -0.281399        -7.6573
  31   0.0000      -0.016819        -0.4577
  32   0.0000       0.010823         0.2945
  33   0.0000       0.011952         0.3252
  34   0.0000       0.011953         0.3253
  35   0.0000       0.024002         0.6531

                 SPIN DOWN ORBITALS
  NO   OCC          E(Eh)            E(eV)
   0   1.0000    -482.609990    -13132.4855
   1   1.0000    -196.769667     -5354.3749
   2   1.0000     -62.484205     -1700.2817
   3   1.0000     -56.288272     -1531.6818
   4   1.0000     -56.287448     -1531.6593
   5   1.0000     -56.287448     -1531.6593
   6   1.0000     -22.246023      -605.3451
   7   1.0000     -18.751822      -510.2630
   8   1.0000     -18.751805      -510.2626
   9   1.0000     -18.739601      -509.9305
  10   1.0000      -8.748280      -238.0528
  11   1.0000      -6.571806      -178.8279
  12   1.0000      -6.569079      -178.7537
  13   1.0000      -6.569078      -178.7537
  14   1.0000      -2.695457       -73.3471
  15   1.0000      -2.694556       -73.3226
  16   1.0000      -2.694556       -73.3226
  17   1.0000      -2.692418       -73.2644
  18   1.0000      -2.692387       -73.2636
  19   1.0000      -2.653124       -72.1952
  20   1.0000      -1.682946       -45.7953
  21   1.0000      -1.682896       -45.7939
  22   1.0000      -1.659302       -45.1519
  23   1.0000      -0.840869       -22.8812
  24   1.0000      -0.400851       -10.9077
  25   1.0000      -0.369174       -10.0457
  26   1.0000      -0.369171       -10.0457
  27   0.0000      -0.007645        -0.2080
  28   0.0000       0.026436         0.7194
  29   0.0000       0.026675         0.7259
  30   0.0000       0.026681         0.7260
  31   0.0000       0.036630         0.9968

MULLIKEN ATOMIC CHARGES AND SPIN POPULATIONS
--------------------------------------------
   0 V :    0.392554    3.959378
   1 Br:   -0.392554    0.040622
Sum of atomic charges         :   -0.0000000

LOEWDIN ATOMIC CHARGES AND SPIN POPULATIONS
-------------------------------------------
   0 V :   -0.076754    3.840160
   1 Br:    0.076754    0.159840

  Mayer bond orders larger than 0.100000
B(  0-V ,  1-Br) :   1.1170

FINAL SINGLE POINT ENERGY     -3517.843670267800

DIPOLE MOMENT
-------------
                                X             Y             Z
Electronic contribution:     -0.00000       0.00000      -0.14708
Nuclear contribution   :      0.00000       0.00000      -1.86860
                        -----------------------------------------
Total Dipole Moment    :     -0.00000       0.00000      -2.01568
                        -----------------------------------------
Magnitude (a.u.)       :      2.01568
Magnitude (Debye)      :      5.12345

Rotational constants in cm-1:     0.000000     0.097224     0.097224
Rotational constants in MHz :     0.000000  2914.715129  2914.715129

                             ****ORCA TERMINATED NORMALLY****
TOTAL RUN TIME: 0 days 0 hours 7 minutes 42 seconds 405 msec
