                         Program Version 4.2.0 -  RELEASE  -
|  1> #
|  2> # 18_VS wb97x-v/aug-cc-pvtz
|  3> #
|  4> ! wb97x-v aug-cc-pvtz def2/jk grid4 nofinalgrid
|  5>
|  6> *xyz 0 4
|  7>   V   0.00000000000000      0.00000000000000     -0.02784157502378
|  8>   S   0.00000000000000      0.00000000000000      2.02784157502377
|  9> *
| 10>
| 11> %pal
| 12> nprocs 24
| 13> end
| 14>
| 15>
| 16>                          ****END OF INPUT****

CARTESIAN COORDINATES (ANGSTROEM)
---------------------------------
  V      0.000000    0.000000   -0.027842
  S      0.000000    0.000000    2.027842

 Total Charge           Charge          ....    0
 Multiplicity           Mult            ....    4
 Number of Electrons    NEL             ....   39
 Basis Dimension        Dim             ....  143

ORBITAL ENERGIES
----------------
                 SPIN UP ORBITALS
  NO   OCC          E(Eh)            E(eV)
   0   1.0000    -196.779433     -5354.6406
   1   1.0000     -88.822012     -2416.9698
   2   1.0000     -22.295953      -606.7037
   3   1.0000     -18.796264      -511.4723
   4   1.0000     -18.788038      -511.2485
   5   1.0000     -18.788038      -511.2485
   6   1.0000      -7.979456      -217.1320
   7   1.0000      -5.931475      -161.4036
   8   1.0000      -5.931475      -161.4036
   9   1.0000      -5.931049      -161.3920
  10   1.0000      -2.769812       -75.3704
  11   1.0000      -1.809510       -49.2393
  12   1.0000      -1.799895       -48.9776
  13   1.0000      -1.799895       -48.9776
  14   1.0000      -0.726533       -19.7700
  15   1.0000      -0.381701       -10.3866
  16   1.0000      -0.329749        -8.9729
  17   1.0000      -0.329749        -8.9729
  18   1.0000      -0.327099        -8.9008
  19   1.0000      -0.327099        -8.9008
  20   1.0000      -0.289843        -7.8870
  21   0.0000      -0.032504        -0.8845
  22   0.0000      -0.008865        -0.2412
  23   0.0000      -0.008865        -0.2412
  24   0.0000       0.020563         0.5595
  25   0.0000       0.026221         0.7135

                 SPIN DOWN ORBITALS
  NO   OCC          E(Eh)            E(eV)
   0   1.0000    -196.778766     -5354.6224
   1   1.0000     -88.824346     -2417.0333
   2   1.0000     -22.261608      -605.7692
   3   1.0000     -18.776779      -510.9421
   4   1.0000     -18.755467      -510.3622
   5   1.0000     -18.755467      -510.3622
   6   1.0000      -7.981692      -217.1929
   7   1.0000      -5.935306      -161.5079
   8   1.0000      -5.935306      -161.5079
   9   1.0000      -5.934338      -161.4815
  10   1.0000      -2.666731       -72.5654
  11   1.0000      -1.725704       -46.9588
  12   1.0000      -1.670765       -45.4638
  13   1.0000      -1.670765       -45.4638
  14   1.0000      -0.743291       -20.2260
  15   1.0000      -0.354204        -9.6384
  16   1.0000      -0.331410        -9.0181
  17   1.0000      -0.331410        -9.0181
  18   0.0000      -0.030840        -0.8392
  19   0.0000       0.019187         0.5221
  20   0.0000       0.019187         0.5221
  21   0.0000       0.020809         0.5662
  22   0.0000       0.029207         0.7948

MULLIKEN ATOMIC CHARGES AND SPIN POPULATIONS
--------------------------------------------
   0 V :    0.237927    3.399019
   1 S :   -0.237927   -0.399019
Sum of atomic charges         :   -0.0000000

LOEWDIN ATOMIC CHARGES AND SPIN POPULATIONS
-------------------------------------------
   0 V :    0.084733    3.178381
   1 S :   -0.084733   -0.178381

  Mayer bond orders larger than 0.100000
B(  0-V ,  1-S ) :   2.4745

FINAL SINGLE POINT ENERGY     -1341.987575965796

DIPOLE MOMENT
-------------
                                X             Y             Z
Electronic contribution:     -0.00000      -0.00000      -6.34980
Nuclear contribution   :      0.00000       0.00000       3.63475
                        -----------------------------------------
Total Dipole Moment    :     -0.00000      -0.00000      -2.71505
                        -----------------------------------------
Magnitude (a.u.)       :      2.71505
Magnitude (Debye)      :      6.90111

Rotational constants in cm-1:     0.000000     0.202740     0.202740
Rotational constants in MHz :     0.000000  6078.002656  6078.002656

                             ****ORCA TERMINATED NORMALLY****
TOTAL RUN TIME: 0 days 0 hours 6 minutes 9 seconds 465 msec
