                         Program Version 4.2.0 -  RELEASE  -
|  1> #
|  2> # 21_CrCl wb97x-v/aug-cc-pvtz
|  3> #
|  4> ! wb97x-v aug-cc-pvtz def2/jk grid4 nofinalgrid
|  5>
|  6> *xyz 0 6
|  7>   Cr  0.00000000000000      0.00000000000000     -0.09885250745251
|  8>   Cl  0.00000000000000      0.00000000000000      2.09885250745250
|  9> *
| 10>
| 11> %pal
| 12> nprocs 24
| 13> end
| 14>
| 15>
| 16>                          ****END OF INPUT****

CARTESIAN COORDINATES (ANGSTROEM)
---------------------------------
  Cr     0.000000    0.000000   -0.098853
  Cl     0.000000    0.000000    2.098853

 Total Charge           Charge          ....    0
 Multiplicity           Mult            ....    6
 Number of Electrons    NEL             ....   41
 Basis Dimension        Dim             ....  143

ORBITAL ENERGIES
----------------
                 SPIN UP ORBITALS
  NO   OCC          E(Eh)            E(eV)
   0   1.0000    -215.591037     -5866.5304
   1   1.0000    -101.480588     -2761.4272
   2   1.0000     -24.718666      -672.6291
   3   1.0000     -21.000076      -571.4411
   4   1.0000     -21.000073      -571.4410
   5   1.0000     -20.999689      -571.4306
   6   1.0000      -9.497024      -258.4271
   7   1.0000      -7.247906      -197.2255
   8   1.0000      -7.246353      -197.1833
   9   1.0000      -7.246353      -197.1833
  10   1.0000      -3.017911       -82.1215
  11   1.0000      -1.976092       -53.7722
  12   1.0000      -1.972292       -53.6688
  13   1.0000      -1.972292       -53.6688
  14   1.0000      -0.872531       -23.7428
  15   1.0000      -0.425511       -11.5787
  16   1.0000      -0.404505       -11.0071
  17   1.0000      -0.404500       -11.0070
  18   1.0000      -0.340562        -9.2672
  19   1.0000      -0.340561        -9.2671
  20   1.0000      -0.322944        -8.7878
  21   1.0000      -0.322936        -8.7875
  22   1.0000      -0.303083        -8.2473
  23   0.0000      -0.028397        -0.7727
  24   0.0000       0.016320         0.4441
  25   0.0000       0.016321         0.4441
  26   0.0000       0.025363         0.6902
  27   0.0000       0.033188         0.9031

                 SPIN DOWN ORBITALS
  NO   OCC          E(Eh)            E(eV)
   0   1.0000    -215.590226     -5866.5083
   1   1.0000    -101.480786     -2761.4326
   2   1.0000     -24.657874      -670.9749
   3   1.0000     -20.953546      -570.1750
   4   1.0000     -20.948755      -570.0446
   5   1.0000     -20.948751      -570.0445
   6   1.0000      -9.497208      -258.4322
   7   1.0000      -7.249076      -197.2574
   8   1.0000      -7.246207      -197.1793
   9   1.0000      -7.246206      -197.1793
  10   1.0000      -2.847275       -77.4783
  11   1.0000      -1.795395       -48.8552
  12   1.0000      -1.781231       -48.4697
  13   1.0000      -1.781222       -48.4695
  14   1.0000      -0.872286       -23.7361
  15   1.0000      -0.416207       -11.3256
  16   1.0000      -0.384130       -10.4527
  17   1.0000      -0.384129       -10.4527
  18   0.0000      -0.007386        -0.2010
  19   0.0000       0.027028         0.7355
  20   0.0000       0.027028         0.7355
  21   0.0000       0.028999         0.7891
  22   0.0000       0.042234         1.1492

MULLIKEN ATOMIC CHARGES AND SPIN POPULATIONS
--------------------------------------------
   0 Cr:    0.452062    4.996699
   1 Cl:   -0.452062    0.003301
Sum of atomic charges         :   -0.0000000

LOEWDIN ATOMIC CHARGES AND SPIN POPULATIONS
-------------------------------------------
   0 Cr:    0.037629    4.880386
   1 Cl:   -0.037629    0.119614

  Mayer bond orders larger than 0.100000
B(  0-Cr,  1-Cl) :   1.0095

FINAL SINGLE POINT ENERGY     -1504.535253962906

DIPOLE MOMENT
-------------
                                X             Y             Z
Electronic contribution:      0.00000      -0.00000      -3.85956
Nuclear contribution   :      0.00000       0.00000       1.57322
                        -----------------------------------------
Total Dipole Moment    :      0.00000      -0.00000      -2.28635
                        -----------------------------------------
Magnitude (a.u.)       :      2.28635
Magnitude (Debye)      :      5.81143

Rotational constants in cm-1:     0.000000     0.165568     0.165568
Rotational constants in MHz :     0.000000  4963.604658  4963.604658

                             ****ORCA TERMINATED NORMALLY****
TOTAL RUN TIME: 0 days 0 hours 4 minutes 47 seconds 503 msec
