                         Program Version 4.2.0 -  RELEASE  -
|  1> #
|  2> # 22_CrBr wb97x-v/aug-cc-pvtz
|  3> #
|  4> ! wb97x-v aug-cc-pvtz def2/jk grid4 nofinalgrid
|  5>
|  6> *xyz 0 6
|  7>   Cr  0.00000000000000      0.00000000000000     -0.17198862284832
|  8>   Br  0.00000000000000      0.00000000000000      2.17198862284831
|  9> *
| 10>
| 11> %pal
| 12> nprocs 24
| 13> end
| 14>
| 15>
| 16>                          ****END OF INPUT****

CARTESIAN COORDINATES (ANGSTROEM)
---------------------------------
  Cr     0.000000    0.000000   -0.171989
  Br     0.000000    0.000000    2.171989

 Total Charge           Charge          ....    0
 Multiplicity           Mult            ....    6
 Number of Electrons    NEL             ....   59
 Basis Dimension        Dim             ....  152

ORBITAL ENERGIES
----------------
                 SPIN UP ORBITALS
  NO   OCC          E(Eh)            E(eV)
   0   1.0000    -482.602135    -13132.2717
   1   1.0000    -215.587393     -5866.4312
   2   1.0000     -62.476341     -1700.0677
   3   1.0000     -56.280262     -1531.4638
   4   1.0000     -56.279610     -1531.4460
   5   1.0000     -56.279609     -1531.4460
   6   1.0000     -24.713489      -672.4882
   7   1.0000     -20.995177      -571.3078
   8   1.0000     -20.995175      -571.3078
   9   1.0000     -20.994404      -571.2868
  10   1.0000      -8.740284      -237.8352
  11   1.0000      -6.563709      -178.6076
  12   1.0000      -6.561093      -178.5364
  13   1.0000      -6.561092      -178.5364
  14   1.0000      -3.014397       -82.0259
  15   1.0000      -2.687436       -73.1288
  16   1.0000      -2.686526       -73.1041
  17   1.0000      -2.686526       -73.1041
  18   1.0000      -2.684381       -73.0457
  19   1.0000      -2.684347       -73.0448
  20   1.0000      -1.972825       -53.6833
  21   1.0000      -1.969366       -53.5892
  22   1.0000      -1.969366       -53.5892
  23   1.0000      -0.832789       -22.6613
  24   1.0000      -0.403692       -10.9850
  25   1.0000      -0.384405       -10.4602
  26   1.0000      -0.384396       -10.4600
  27   1.0000      -0.338561        -9.2127
  28   1.0000      -0.338560        -9.2127
  29   1.0000      -0.316676        -8.6172
  30   1.0000      -0.316672        -8.6171
  31   1.0000      -0.306619        -8.3435
  32   0.0000      -0.032128        -0.8742
  33   0.0000       0.016078         0.4375
  34   0.0000       0.016079         0.4375
  35   0.0000       0.023548         0.6408
  36   0.0000       0.034494         0.9386

                 SPIN DOWN ORBITALS
  NO   OCC          E(Eh)            E(eV)
   0   1.0000    -482.602251    -13132.2749
   1   1.0000    -215.586679     -5866.4118
   2   1.0000     -62.476377     -1700.0687
   3   1.0000     -56.280603     -1531.4731
   4   1.0000     -56.279589     -1531.4455
   5   1.0000     -56.279589     -1531.4455
   6   1.0000     -24.652340      -670.8243
   7   1.0000     -20.947416      -570.0082
   8   1.0000     -20.943837      -569.9108
   9   1.0000     -20.943833      -569.9107
  10   1.0000      -8.740427      -237.8391
  11   1.0000      -6.564326      -178.6244
  12   1.0000      -6.561047      -178.5352
  13   1.0000      -6.561046      -178.5351
  14   1.0000      -2.842322       -77.3435
  15   1.0000      -2.687823       -73.1394
  16   1.0000      -2.686821       -73.1121
  17   1.0000      -2.686820       -73.1121
  18   1.0000      -2.684283       -73.0430
  19   1.0000      -2.684249       -73.0421
  20   1.0000      -1.788569       -48.6694
  21   1.0000      -1.777410       -48.3658
  22   1.0000      -1.777404       -48.3656
  23   1.0000      -0.833033       -22.6680
  24   1.0000      -0.392883       -10.6909
  25   1.0000      -0.360077        -9.7982
  26   1.0000      -0.360075        -9.7981
  27   0.0000      -0.012155        -0.3308
  28   0.0000       0.025728         0.7001
  29   0.0000       0.025731         0.7002
  30   0.0000       0.026718         0.7270
  31   0.0000       0.042145         1.1468

MULLIKEN ATOMIC CHARGES AND SPIN POPULATIONS
--------------------------------------------
   0 Cr:    0.358181    5.020083
   1 Br:   -0.358181   -0.020083
Sum of atomic charges         :   -0.0000000

LOEWDIN ATOMIC CHARGES AND SPIN POPULATIONS
-------------------------------------------
   0 Cr:   -0.053631    4.896443
   1 Br:    0.053631    0.103557

  Mayer bond orders larger than 0.100000
B(  0-Cr,  1-Br) :   1.1058

FINAL SINGLE POINT ENERGY     -3618.351883075839

DIPOLE MOMENT
-------------
                                X             Y             Z
Electronic contribution:      0.00000      -0.00000       0.88691
Nuclear contribution   :      0.00000       0.00000      -3.27761
                        -----------------------------------------
Total Dipole Moment    :      0.00000      -0.00000      -2.39070
                        -----------------------------------------
Magnitude (a.u.)       :      2.39070
Magnitude (Debye)      :      6.07667

Rotational constants in cm-1:     0.000000     0.097406     0.097406
Rotational constants in MHz :     0.000000  2920.152240  2920.152240

                             ****ORCA TERMINATED NORMALLY****
TOTAL RUN TIME: 0 days 0 hours 7 minutes 20 seconds 819 msec
