                         Program Version 4.2.0 -  RELEASE  -
|  1> #
|  2> # 23_CrO wb97x-v/aug-cc-pvtz
|  3> #
|  4> ! wb97x-v aug-cc-pvtz def2/jk grid4 nofinalgrid
|  5>
|  6> *xyz 0 5
|  7>   Cr  0.00000000000000      0.00000000000000      0.19264925280896
|  8>   O   0.00000000000000      0.00000000000000      1.80735074719104
|  9> *
| 10>
| 11> %pal
| 12> nprocs 24
| 13> end
| 14>
| 15>
| 16>                          ****END OF INPUT****

CARTESIAN COORDINATES (ANGSTROEM)
---------------------------------
  Cr     0.000000    0.000000    0.192649
  O      0.000000    0.000000    1.807351

 Total Charge           Charge          ....    0
 Multiplicity           Mult            ....    5
 Number of Electrons    NEL             ....   32
 Basis Dimension        Dim             ....  139

ORBITAL ENERGIES
----------------
                 SPIN UP ORBITALS
  NO   OCC          E(Eh)            E(eV)
   0   1.0000    -215.665676     -5868.5614
   1   1.0000     -24.805738      -674.9984
   2   1.0000     -21.088856      -573.8569
   3   1.0000     -21.088642      -573.8511
   4   1.0000     -21.081034      -573.6441
   5   1.0000     -19.188240      -522.1386
   6   1.0000      -3.077899       -83.7539
   7   1.0000      -2.034444       -55.3600
   8   1.0000      -2.029987       -55.2387
   9   1.0000      -2.023622       -55.0656
  10   1.0000      -0.983538       -26.7634
  11   1.0000      -0.461280       -12.5521
  12   1.0000      -0.449830       -12.2405
  13   1.0000      -0.414842       -11.2884
  14   1.0000      -0.389101       -10.5880
  15   1.0000      -0.387953       -10.5567
  16   1.0000      -0.312467        -8.5027
  17   1.0000      -0.293490        -7.9863
  18   0.0000      -0.023400        -0.6368
  19   0.0000      -0.011965        -0.3256
  20   0.0000       0.019087         0.5194
  21   0.0000       0.025900         0.7048
  22   0.0000       0.028976         0.7885

                 SPIN DOWN ORBITALS
  NO   OCC          E(Eh)            E(eV)
   0   1.0000    -215.664303     -5868.5240
   1   1.0000     -24.754838      -673.6134
   2   1.0000     -21.056367      -572.9729
   3   1.0000     -21.046307      -572.6991
   4   1.0000     -21.031496      -572.2961
   5   1.0000     -19.195538      -522.3371
   6   1.0000      -2.939197       -79.9796
   7   1.0000      -1.912755       -52.0487
   8   1.0000      -1.876987       -51.0754
   9   1.0000      -1.845558       -50.2202
  10   1.0000      -1.002898       -27.2902
  11   1.0000      -0.436924       -11.8893
  12   1.0000      -0.433415       -11.7938
  13   1.0000      -0.409376       -11.1397
  14   0.0000      -0.006575        -0.1789
  15   0.0000       0.027898         0.7591
  16   0.0000       0.029956         0.8151
  17   0.0000       0.030064         0.8181
  18   0.0000       0.040080         1.0906

MULLIKEN ATOMIC CHARGES AND SPIN POPULATIONS
--------------------------------------------
   0 Cr:    0.619080    4.282128
   1 O :   -0.619080   -0.282128
Sum of atomic charges         :    0.0000000

LOEWDIN ATOMIC CHARGES AND SPIN POPULATIONS
-------------------------------------------
   0 Cr:    0.591515    4.088515
   1 O :   -0.591515   -0.088515

  Mayer bond orders larger than 0.100000
B(  0-Cr,  1-O ) :   2.0720

FINAL SINGLE POINT ENERGY     -1119.523156499240

DIPOLE MOMENT
-------------
                                X             Y             Z
Electronic contribution:     -0.00000       0.00000      -3.23014
Nuclear contribution   :      0.00000       0.00000       1.43702
                        -----------------------------------------
Total Dipole Moment    :     -0.00000       0.00000      -1.79311
                        -----------------------------------------
Magnitude (a.u.)       :      1.79311
Magnitude (Debye)      :      4.55773

Rotational constants in cm-1:     0.000000     0.528468     0.528468
Rotational constants in MHz :     0.000000 15843.074100 15843.074100

                             ****ORCA TERMINATED NORMALLY****
TOTAL RUN TIME: 0 days 0 hours 5 minutes 32 seconds 570 msec
