                         Program Version 4.2.0 -  RELEASE  -
|  1> #
|  2> # 25_MnH wb97x-v/aug-cc-pvtz
|  3> #
|  4> ! wb97x-v aug-cc-pvtz def2/jk grid4 nofinalgrid
|  5>
|  6> *xyz 0 7
|  7>   Mn  0.00000000000000      0.00000000000000      0.13923463274405
|  8>   H   0.00000000000000      0.00000000000000      1.86076536725595
|  9> *
| 10>
| 11> %pal
| 12> nprocs 24
| 13> end
| 14>
| 15>
| 16>                          ****END OF INPUT****

CARTESIAN COORDINATES (ANGSTROEM)
---------------------------------
  Mn     0.000000    0.000000    0.139235
  H      0.000000    0.000000    1.860765

 Total Charge           Charge          ....    0
 Multiplicity           Mult            ....    7
 Number of Electrons    NEL             ....   26
 Basis Dimension        Dim             ....  116

ORBITAL ENERGIES
----------------
                 SPIN UP ORBITALS
  NO   OCC          E(Eh)            E(eV)
   0   1.0000    -235.427930     -6406.3197
   1   1.0000     -27.455340      -747.0978
   2   1.0000     -23.518933      -639.9827
   3   1.0000     -23.518933      -639.9827
   4   1.0000     -23.516054      -639.9044
   5   1.0000      -3.437590       -93.5416
   6   1.0000      -2.305935       -62.7477
   7   1.0000      -2.305934       -62.7476
   8   1.0000      -2.296315       -62.4859
   9   1.0000      -0.502190       -13.6653
  10   1.0000      -0.494984       -13.4692
  11   1.0000      -0.494983       -13.4692
  12   1.0000      -0.487492       -13.2653
  13   1.0000      -0.487492       -13.2653
  14   1.0000      -0.385312       -10.4849
  15   1.0000      -0.252318        -6.8659
  16   0.0000       0.006251         0.1701
  17   0.0000       0.006252         0.1701
  18   0.0000       0.022599         0.6150
  19   0.0000       0.030749         0.8367
  20   0.0000       0.050901         1.3851

                 SPIN DOWN ORBITALS
  NO   OCC          E(Eh)            E(eV)
   0   1.0000    -235.425880     -6406.2639
   1   1.0000     -27.373530      -744.8716
   2   1.0000     -23.451966      -638.1604
   3   1.0000     -23.451965      -638.1604
   4   1.0000     -23.449931      -638.1050
   5   1.0000      -3.229785       -87.8869
   6   1.0000      -2.079969       -56.5988
   7   1.0000      -2.079966       -56.5988
   8   1.0000      -2.069844       -56.3233
   9   1.0000      -0.384773       -10.4702
  10   0.0000      -0.014362        -0.3908
  11   0.0000       0.024127         0.6565
  12   0.0000       0.024130         0.6566
  13   0.0000       0.027966         0.7610
  14   0.0000       0.028301         0.7701

MULLIKEN ATOMIC CHARGES AND SPIN POPULATIONS
--------------------------------------------
   0 Mn:    0.236750    5.911396
   1 H :   -0.236750    0.088604
Sum of atomic charges         :    0.0000000

LOEWDIN ATOMIC CHARGES AND SPIN POPULATIONS
-------------------------------------------
   0 Mn:    0.566737    5.804844
   1 H :   -0.566737    0.195156

  Mayer bond orders larger than 0.100000
B(  0-Mn,  1-H ) :   0.9505

FINAL SINGLE POINT ENERGY     -1151.413866281120

DIPOLE MOMENT
-------------
                                X             Y             Z
Electronic contribution:     -0.00000       0.00000      -2.14487
Nuclear contribution   :      0.00000       0.00000       1.72930
                        -----------------------------------------
Total Dipole Moment    :     -0.00000       0.00000      -0.41557
                        -----------------------------------------
Magnitude (a.u.)       :      0.41557
Magnitude (Debye)      :      1.05630

Rotational constants in cm-1:     0.000000     5.746491     5.746491
Rotational constants in MHz :     0.000000 172275.461427 172275.461427

                             ****ORCA TERMINATED NORMALLY****
TOTAL RUN TIME: 0 days 0 hours 4 minutes 17 seconds 663 msec
