                         Program Version 4.2.0 -  RELEASE  -
|  1> #
|  2> # 26_MnF wb97x-v/aug-cc-pvtz
|  3> #
|  4> ! wb97x-v aug-cc-pvtz def2/jk grid4 nofinalgrid
|  5>
|  6> *xyz 0 7
|  7>   Mn  0.00000000000000      0.00000000000000      0.08590077209256
|  8>   F   0.00000000000000      0.00000000000000      1.91409922790744
|  9> *
| 10>
| 11> %pal
| 12> nprocs 24
| 13> end
| 14>
| 15>
| 16>                          ****END OF INPUT****

CARTESIAN COORDINATES (ANGSTROEM)
---------------------------------
  Mn     0.000000    0.000000    0.085901
  F      0.000000    0.000000    1.914099

 Total Charge           Charge          ....    0
 Multiplicity           Mult            ....    7
 Number of Electrons    NEL             ....   34
 Basis Dimension        Dim             ....  139

ORBITAL ENERGIES
----------------
                 SPIN UP ORBITALS
  NO   OCC          E(Eh)            E(eV)
   0   1.0000    -235.426305     -6406.2755
   1   1.0000     -27.452194      -747.0122
   2   1.0000     -24.686348      -671.7497
   3   1.0000     -23.516146      -639.9069
   4   1.0000     -23.516146      -639.9069
   5   1.0000     -23.512493      -639.8075
   6   1.0000      -3.437082       -93.5278
   7   1.0000      -2.305835       -62.7450
   8   1.0000      -2.305835       -62.7450
   9   1.0000      -2.296927       -62.5026
  10   1.0000      -1.220197       -33.2033
  11   1.0000      -0.552504       -15.0344
  12   1.0000      -0.521583       -14.1930
  13   1.0000      -0.521583       -14.1930
  14   1.0000      -0.495752       -13.4901
  15   1.0000      -0.495750       -13.4900
  16   1.0000      -0.438518       -11.9327
  17   1.0000      -0.438518       -11.9327
  18   1.0000      -0.427042       -11.6204
  19   1.0000      -0.283948        -7.7266
  20   0.0000       0.010533         0.2866
  21   0.0000       0.010533         0.2866
  22   0.0000       0.023326         0.6347
  23   0.0000       0.030584         0.8322
  24   0.0000       0.053646         1.4598

                 SPIN DOWN ORBITALS
  NO   OCC          E(Eh)            E(eV)
   0   1.0000    -235.424070     -6406.2146
   1   1.0000     -27.369983      -744.7751
   2   1.0000     -24.682323      -671.6402
   3   1.0000     -23.449042      -638.0809
   4   1.0000     -23.449042      -638.0809
   5   1.0000     -23.445879      -637.9948
   6   1.0000      -3.228965       -87.8646
   7   1.0000      -2.079679       -56.5910
   8   1.0000      -2.079679       -56.5910
   9   1.0000      -2.071862       -56.3782
  10   1.0000      -1.208253       -32.8782
  11   1.0000      -0.499130       -13.5820
  12   1.0000      -0.470107       -12.7923
  13   1.0000      -0.470107       -12.7923
  14   0.0000      -0.008091        -0.2202
  15   0.0000       0.031922         0.8686
  16   0.0000       0.031925         0.8687
  17   0.0000       0.032957         0.8968
  18   0.0000       0.032957         0.8968

MULLIKEN ATOMIC CHARGES AND SPIN POPULATIONS
--------------------------------------------
   0 Mn:    0.637098    5.883205
   1 F :   -0.637098    0.116795
Sum of atomic charges         :    0.0000000

LOEWDIN ATOMIC CHARGES AND SPIN POPULATIONS
-------------------------------------------
   0 Mn:    0.449067    5.770800
   1 F :   -0.449067    0.229200

  Mayer bond orders larger than 0.100000
B(  0-Mn,  1-F ) :   0.6583

FINAL SINGLE POINT ENERGY     -1250.753203733347

DIPOLE MOMENT
-------------
                                X             Y             Z
Electronic contribution:     -0.00000       0.00000      -1.83901
Nuclear contribution   :      0.00000       0.00000       0.91162
                        -----------------------------------------
Total Dipole Moment    :     -0.00000       0.00000      -0.92739
                        -----------------------------------------
Magnitude (a.u.)       :      0.92739
Magnitude (Debye)      :      2.35724

Rotational constants in cm-1:     0.000000     0.357290     0.357290
Rotational constants in MHz :     0.000000 10711.297675 10711.297675

                             ****ORCA TERMINATED NORMALLY****
TOTAL RUN TIME: 0 days 0 hours 3 minutes 20 seconds 164 msec
