                         Program Version 4.2.0 -  RELEASE  -
|  1> #
|  2> # 28_MnBr wb97x-v/aug-cc-pvtz
|  3> #
|  4> ! wb97x-v aug-cc-pvtz def2/jk grid4 nofinalgrid
|  5>
|  6> *xyz 0 7
|  7>   Mn  0.00000000000000      0.00000000000000     -0.18897622296313
|  8>   Br  0.00000000000000      0.00000000000000      2.18897622296313
|  9> *
| 10>
| 11> %pal
| 12> nprocs 24
| 13> end
| 14>
| 15>
| 16>                          ****END OF INPUT****

CARTESIAN COORDINATES (ANGSTROEM)
---------------------------------
  Mn     0.000000    0.000000   -0.188976
  Br     0.000000    0.000000    2.188976

 Total Charge           Charge          ....    0
 Multiplicity           Mult            ....    7
 Number of Electrons    NEL             ....   60
 Basis Dimension        Dim             ....  152

ORBITAL ENERGIES
----------------
                 SPIN UP ORBITALS
  NO   OCC          E(Eh)            E(eV)
   0   1.0000    -482.628774    -13132.9966
   1   1.0000    -235.450937     -6406.9457
   2   1.0000     -62.502891     -1700.7901
   3   1.0000     -56.306990     -1532.1911
   4   1.0000     -56.306237     -1532.1706
   5   1.0000     -56.306237     -1532.1706
   6   1.0000     -27.476999      -747.6872
   7   1.0000     -23.540477      -640.5689
   8   1.0000     -23.540477      -640.5689
   9   1.0000     -23.538129      -640.5051
  10   1.0000      -8.767017      -238.5627
  11   1.0000      -6.590428      -179.3347
  12   1.0000      -6.587915      -179.2663
  13   1.0000      -6.587915      -179.2663
  14   1.0000      -3.460693       -94.1702
  15   1.0000      -2.714090       -73.8541
  16   1.0000      -2.713252       -73.8313
  17   1.0000      -2.713252       -73.8313
  18   1.0000      -2.711279       -73.7776
  19   1.0000      -2.711247       -73.7768
  20   1.0000      -2.328196       -63.3534
  21   1.0000      -2.328196       -63.3534
  22   1.0000      -2.321728       -63.1774
  23   1.0000      -0.865481       -23.5509
  24   1.0000      -0.523974       -14.2581
  25   1.0000      -0.516769       -14.0620
  26   1.0000      -0.516769       -14.0620
  27   1.0000      -0.516384       -14.0515
  28   1.0000      -0.516383       -14.0515
  29   1.0000      -0.420328       -11.4377
  30   1.0000      -0.379976       -10.3397
  31   1.0000      -0.379976       -10.3397
  32   1.0000      -0.284242        -7.7346
  33   0.0000       0.006783         0.1846
  34   0.0000       0.006783         0.1846
  35   0.0000       0.021786         0.5928
  36   0.0000       0.029204         0.7947
  37   0.0000       0.046746         1.2720

                 SPIN DOWN ORBITALS
  NO   OCC          E(Eh)            E(eV)
   0   1.0000    -482.628402    -13132.9865
   1   1.0000    -235.448787     -6406.8872
   2   1.0000     -62.502676     -1700.7843
   3   1.0000     -56.306480     -1532.1772
   4   1.0000     -56.305916     -1532.1619
   5   1.0000     -56.305916     -1532.1619
   6   1.0000     -27.394582      -745.4445
   7   1.0000     -23.473250      -638.7396
   8   1.0000     -23.473250      -638.7396
   9   1.0000     -23.471352      -638.6879
  10   1.0000      -8.766470      -238.5478
  11   1.0000      -6.589603      -179.3122
  12   1.0000      -6.587366      -179.2513
  13   1.0000      -6.587366      -179.2513
  14   1.0000      -3.251612       -88.4809
  15   1.0000      -2.713359       -73.8342
  16   1.0000      -2.712575       -73.8129
  17   1.0000      -2.712575       -73.8129
  18   1.0000      -2.710750       -73.7632
  19   1.0000      -2.710718       -73.7624
  20   1.0000      -2.100922       -57.1690
  21   1.0000      -2.100922       -57.1690
  22   1.0000      -2.094771       -57.0016
  23   1.0000      -0.858313       -23.3559
  24   1.0000      -0.427489       -11.6326
  25   1.0000      -0.385448       -10.4886
  26   1.0000      -0.385448       -10.4886
  27   0.0000      -0.024615        -0.6698
  28   0.0000       0.010782         0.2934
  29   0.0000       0.010782         0.2934
  30   0.0000       0.019590         0.5331
  31   0.0000       0.019590         0.5331

MULLIKEN ATOMIC CHARGES AND SPIN POPULATIONS
--------------------------------------------
   0 Mn:    0.453169    5.858623
   1 Br:   -0.453169    0.141377
Sum of atomic charges         :   -0.0000000

LOEWDIN ATOMIC CHARGES AND SPIN POPULATIONS
-------------------------------------------
   0 Mn:    0.042091    5.758871
   1 Br:   -0.042091    0.241129

  Mayer bond orders larger than 0.100000
B(  0-Mn,  1-Br) :   0.9470

FINAL SINGLE POINT ENERGY     -3724.885750677137

DIPOLE MOMENT
-------------
                                X             Y             Z
Electronic contribution:      0.00000       0.00000       1.36624
Nuclear contribution   :      0.00000       0.00000      -2.48612
                        -----------------------------------------
Total Dipole Moment    :      0.00000       0.00000      -1.11988
                        -----------------------------------------
Magnitude (a.u.)       :      1.11988
Magnitude (Debye)      :      2.84651

Rotational constants in cm-1:     0.000000     0.091574     0.091574
Rotational constants in MHz :     0.000000  2745.330169  2745.330169

                             ****ORCA TERMINATED NORMALLY****
TOTAL RUN TIME: 0 days 0 hours 7 minutes 5 seconds 394 msec
