                         Program Version 4.2.0 -  RELEASE  -
|  1> #
|  2> # 32_FeF wb97x-v/aug-cc-pvtz
|  3> #
|  4> ! wb97x-v aug-cc-pvtz def2/jk grid4 nofinalgrid
|  5>
|  6> *xyz 0 6
|  7>   Fe  0.00000000000000      0.00000000000000      0.10964273788681
|  8>   F   0.00000000000000      0.00000000000000      1.89035726211319
|  9> *
| 10>
| 11> %pal
| 12> nprocs 24
| 13> end
| 14>
| 15>
| 16>                          ****END OF INPUT****

CARTESIAN COORDINATES (ANGSTROEM)
---------------------------------
  Fe     0.000000    0.000000    0.109643
  F      0.000000    0.000000    1.890357

 Total Charge           Charge          ....    0
 Multiplicity           Mult            ....    6
 Number of Electrons    NEL             ....   35
 Basis Dimension        Dim             ....  139

ORBITAL ENERGIES
----------------
                 SPIN UP ORBITALS
  NO   OCC          E(Eh)            E(eV)
   0   1.0000    -256.034808     -6967.0613
   1   1.0000     -30.178589      -821.2012
   2   1.0000     -26.043343      -708.6754
   3   1.0000     -26.016670      -707.9496
   4   1.0000     -26.016670      -707.9496
   5   1.0000     -24.706349      -672.2939
   6   1.0000      -3.722772      -101.3018
   7   1.0000      -2.533113       -68.9295
   8   1.0000      -2.480947       -67.5100
   9   1.0000      -2.480947       -67.5100
  10   1.0000      -1.242364       -33.8064
  11   1.0000      -0.588848       -16.0234
  12   1.0000      -0.555795       -15.1240
  13   1.0000      -0.555795       -15.1240
  14   1.0000      -0.512442       -13.9442
  15   1.0000      -0.478921       -13.0321
  16   1.0000      -0.465054       -12.6548
  17   1.0000      -0.465054       -12.6548
  18   1.0000      -0.461998       -12.5716
  19   1.0000      -0.289643        -7.8816
  20   0.0000       0.014088         0.3833
  21   0.0000       0.014088         0.3833
  22   0.0000       0.025120         0.6835
  23   0.0000       0.030971         0.8428
  24   0.0000       0.058525         1.5925

                 SPIN DOWN ORBITALS
  NO   OCC          E(Eh)            E(eV)
   0   1.0000    -256.032582     -6967.0008
   1   1.0000     -30.104317      -819.1801
   2   1.0000     -25.973069      -706.7631
   3   1.0000     -25.961654      -706.4525
   4   1.0000     -25.961654      -706.4525
   5   1.0000     -24.701143      -672.1523
   6   1.0000      -3.546384       -96.5020
   7   1.0000      -2.308744       -62.8241
   8   1.0000      -2.307933       -62.8020
   9   1.0000      -2.307933       -62.8020
  10   1.0000      -1.227369       -33.3984
  11   1.0000      -0.521333       -14.1862
  12   1.0000      -0.486874       -13.2485
  13   1.0000      -0.486874       -13.2485
  14   1.0000      -0.392318       -10.6755
  15   0.0000      -0.034778        -0.9464
  16   0.0000       0.012418         0.3379
  17   0.0000       0.012418         0.3379
  18   0.0000       0.020720         0.5638
  19   0.0000       0.026230         0.7138

MULLIKEN ATOMIC CHARGES AND SPIN POPULATIONS
--------------------------------------------
   0 Fe:    0.599121    4.850562
   1 F :   -0.599121    0.149438
Sum of atomic charges         :   -0.0000000

LOEWDIN ATOMIC CHARGES AND SPIN POPULATIONS
-------------------------------------------
   0 Fe:    0.431248    4.740431
   1 F :   -0.431248    0.259569

  Mayer bond orders larger than 0.100000
B(  0-Fe,  1-F ) :   0.7021

FINAL SINGLE POINT ENERGY     -1363.439457288279

DIPOLE MOMENT
-------------
                                X             Y             Z
Electronic contribution:      0.00000      -0.00000      -1.19295
Nuclear contribution   :      0.00000       0.00000       0.39123
                        -----------------------------------------
Total Dipole Moment    :      0.00000      -0.00000      -0.80172
                        -----------------------------------------
Magnitude (a.u.)       :      0.80172
Magnitude (Debye)      :      2.03781

Rotational constants in cm-1:     0.000000     0.375023     0.375023
Rotational constants in MHz :     0.000000 11242.894653 11242.894653

                             ****ORCA TERMINATED NORMALLY****
TOTAL RUN TIME: 0 days 0 hours 3 minutes 40 seconds 169 msec
