                         Program Version 4.2.0 -  RELEASE  -
|  1> #
|  2> # 34_FeBr wb97x-v/aug-cc-pvtz
|  3> #
|  4> ! wb97x-v aug-cc-pvtz def2/jk grid4 nofinalgrid
|  5>
|  6> *xyz 0 6
|  7>   Fe  0.00000000000000      0.00000000000000     -0.16252996889250
|  8>   Br  0.00000000000000      0.00000000000000      2.16252996889250
|  9> *
| 10>
| 11> %pal
| 12> nprocs 24
| 13> end
| 14>
| 15>
| 16>                          ****END OF INPUT****

CARTESIAN COORDINATES (ANGSTROEM)
---------------------------------
  Fe     0.000000    0.000000   -0.162530
  Br     0.000000    0.000000    2.162530

 Total Charge           Charge          ....    0
 Multiplicity           Mult            ....    6
 Number of Electrons    NEL             ....   61
 Basis Dimension        Dim             ....  152

ORBITAL ENERGIES
----------------
                 SPIN UP ORBITALS
  NO   OCC          E(Eh)            E(eV)
   0   1.0000    -482.639886    -13133.2990
   1   1.0000    -256.056404     -6967.6490
   2   1.0000     -62.513950     -1701.0911
   3   1.0000     -56.318158     -1532.4950
   4   1.0000     -56.317293     -1532.4715
   5   1.0000     -56.317293     -1532.4715
   6   1.0000     -30.200304      -821.7921
   7   1.0000     -26.065990      -709.2917
   8   1.0000     -26.037885      -708.5269
   9   1.0000     -26.037885      -708.5269
  10   1.0000      -8.778157      -238.8658
  11   1.0000      -6.601812      -179.6444
  12   1.0000      -6.598960      -179.5668
  13   1.0000      -6.598960      -179.5668
  14   1.0000      -3.743142      -101.8561
  15   1.0000      -2.725455       -74.1634
  16   1.0000      -2.724488       -74.1371
  17   1.0000      -2.724488       -74.1371
  18   1.0000      -2.722262       -74.0765
  19   1.0000      -2.722226       -74.0755
  20   1.0000      -2.554646       -69.5155
  21   1.0000      -2.500064       -68.0302
  22   1.0000      -2.500064       -68.0302
  23   1.0000      -0.878112       -23.8947
  24   1.0000      -0.565833       -15.3971
  25   1.0000      -0.554415       -15.0864
  26   1.0000      -0.554415       -15.0864
  27   1.0000      -0.530116       -14.4252
  28   1.0000      -0.496485       -13.5100
  29   1.0000      -0.437146       -11.8954
  30   1.0000      -0.390898       -10.6369
  31   1.0000      -0.390898       -10.6369
  32   1.0000      -0.287596        -7.8259
  33   0.0000       0.011724         0.3190
  34   0.0000       0.011724         0.3190
  35   0.0000       0.024078         0.6552
  36   0.0000       0.030042         0.8175
  37   0.0000       0.051068         1.3896

                 SPIN DOWN ORBITALS
  NO   OCC          E(Eh)            E(eV)
   0   1.0000    -482.639376    -13133.2851
   1   1.0000    -256.054274     -6967.5910
   2   1.0000     -62.513666     -1701.0833
   3   1.0000     -56.317476     -1532.4764
   4   1.0000     -56.316848     -1532.4593
   5   1.0000     -56.316848     -1532.4593
   6   1.0000     -30.126170      -819.7748
   7   1.0000     -25.995873      -707.3837
   8   1.0000     -25.983005      -707.0335
   9   1.0000     -25.983005      -707.0335
  10   1.0000      -8.777419      -238.8457
  11   1.0000      -6.600691      -179.6139
  12   1.0000      -6.598206      -179.5463
  13   1.0000      -6.598206      -179.5463
  14   1.0000      -3.566522       -97.0500
  15   1.0000      -2.724462       -74.1364
  16   1.0000      -2.723568       -74.1120
  17   1.0000      -2.723568       -74.1120
  18   1.0000      -2.721540       -74.0569
  19   1.0000      -2.721505       -74.0559
  20   1.0000      -2.329380       -63.3856
  21   1.0000      -2.326669       -63.3119
  22   1.0000      -2.326669       -63.3119
  23   1.0000      -0.868817       -23.6417
  24   1.0000      -0.442678       -12.0459
  25   1.0000      -0.409645       -11.1470
  26   1.0000      -0.394425       -10.7328
  27   1.0000      -0.394425       -10.7328
  28   0.0000      -0.047747        -1.2993
  29   0.0000      -0.019479        -0.5300
  30   0.0000      -0.019479        -0.5300
  31   0.0000       0.002576         0.0701
  32   0.0000       0.004234         0.1152

MULLIKEN ATOMIC CHARGES AND SPIN POPULATIONS
--------------------------------------------
   0 Fe:    0.416557    4.810126
   1 Br:   -0.416557    0.189874
Sum of atomic charges         :   -0.0000000

LOEWDIN ATOMIC CHARGES AND SPIN POPULATIONS
-------------------------------------------
   0 Fe:    0.007068    4.722578
   1 Br:   -0.007068    0.277422

  Mayer bond orders larger than 0.100000
B(  0-Fe,  1-Br) :   0.9929

FINAL SINGLE POINT ENERGY     -3837.567639611126

DIPOLE MOMENT
-------------
                                X             Y             Z
Electronic contribution:      0.00000       0.00000       3.07889
Nuclear contribution   :      0.00000       0.00000      -3.96973
                        -----------------------------------------
Total Dipole Moment    :      0.00000       0.00000      -0.89084
                        -----------------------------------------
Magnitude (a.u.)       :      0.89084
Magnitude (Debye)      :      2.26433

Rotational constants in cm-1:     0.000000     0.094863     0.094863
Rotational constants in MHz :     0.000000  2843.931812  2843.931812

                             ****ORCA TERMINATED NORMALLY****
TOTAL RUN TIME: 0 days 0 hours 6 minutes 56 seconds 338 msec
