                         Program Version 4.2.0 -  RELEASE  -
|  1> #
|  2> # 36_FeS wb97x-v/aug-cc-pvtz
|  3> #
|  4> ! wb97x-v aug-cc-pvtz def2/jk grid4 nofinalgrid
|  5>
|  6> *xyz 0 5
|  7>   Fe  0.00000000000000      0.00000000000000     -0.00599090985654
|  8>   S   0.00000000000000      0.00000000000000      2.00599090985654
|  9> *
| 10>
| 11> %pal
| 12> nprocs 24
| 13> end
| 14>
| 15>
| 16>                          ****END OF INPUT****

CARTESIAN COORDINATES (ANGSTROEM)
---------------------------------
  Fe     0.000000    0.000000   -0.005991
  S      0.000000    0.000000    2.005991

 Total Charge           Charge          ....    0
 Multiplicity           Mult            ....    5
 Number of Electrons    NEL             ....   42
 Basis Dimension        Dim             ....  143

ORBITAL ENERGIES
----------------
                 SPIN UP ORBITALS
  NO   OCC          E(Eh)            E(eV)
   0   1.0000    -255.990868     -6965.8657
   1   1.0000     -88.830721     -2417.2068
   2   1.0000     -30.122592      -819.6774
   3   1.0000     -25.985713      -707.1072
   4   1.0000     -25.964206      -706.5220
   5   1.0000     -25.964206      -706.5220
   6   1.0000      -7.986721      -217.3297
   7   1.0000      -5.940033      -161.6365
   8   1.0000      -5.939796      -161.6301
   9   1.0000      -5.939796      -161.6301
  10   1.0000      -3.661255       -99.6278
  11   1.0000      -2.469534       -67.1994
  12   1.0000      -2.422530       -65.9204
  13   1.0000      -2.422530       -65.9204
  14   1.0000      -0.755276       -20.5521
  15   1.0000      -0.487403       -13.2629
  16   1.0000      -0.486949       -13.2506
  17   1.0000      -0.486949       -13.2506
  18   1.0000      -0.461036       -12.5454
  19   1.0000      -0.428574       -11.6621
  20   1.0000      -0.342880        -9.3302
  21   1.0000      -0.312071        -8.4919
  22   1.0000      -0.312071        -8.4919
  23   0.0000      -0.053064        -1.4439
  24   0.0000       0.019551         0.5320
  25   0.0000       0.019551         0.5320
  26   0.0000       0.020860         0.5676
  27   0.0000       0.035507         0.9662

                 SPIN DOWN ORBITALS
  NO   OCC          E(Eh)            E(eV)
   0   1.0000    -255.989658     -6965.8327
   1   1.0000     -88.829112     -2417.1630
   2   1.0000     -30.059406      -817.9580
   3   1.0000     -25.929040      -705.5651
   4   1.0000     -25.915928      -705.2083
   5   1.0000     -25.915928      -705.2083
   6   1.0000      -7.985187      -217.2880
   7   1.0000      -5.940061      -161.6373
   8   1.0000      -5.936033      -161.5277
   9   1.0000      -5.936033      -161.5277
  10   1.0000      -3.511155       -95.5434
  11   1.0000      -2.283265       -62.1308
  12   1.0000      -2.272007       -61.8245
  13   1.0000      -2.272007       -61.8245
  14   1.0000      -0.738386       -20.0925
  15   1.0000      -0.373944       -10.1755
  16   1.0000      -0.356405        -9.6983
  17   1.0000      -0.326995        -8.8980
  18   1.0000      -0.326995        -8.8980
  19   0.0000      -0.050000        -1.3606
  20   0.0000      -0.000964        -0.0262
  21   0.0000      -0.000963        -0.0262
  22   0.0000      -0.000963        -0.0262
  23   0.0000       0.026227         0.7137

MULLIKEN ATOMIC CHARGES AND SPIN POPULATIONS
--------------------------------------------
   0 Fe:    0.388248    3.542186
   1 S :   -0.388248    0.457814
Sum of atomic charges         :   -0.0000000

LOEWDIN ATOMIC CHARGES AND SPIN POPULATIONS
-------------------------------------------
   0 Fe:    0.157103    3.573843
   1 S :   -0.157103    0.426157

  Mayer bond orders larger than 0.100000
B(  0-Fe,  1-S ) :   2.1956

FINAL SINGLE POINT ENERGY     -1661.710769761282

DIPOLE MOMENT
-------------
                                X             Y             Z
Electronic contribution:      0.00000       0.00000      -5.20830
Nuclear contribution   :      0.00000       0.00000       2.59672
                        -----------------------------------------
Total Dipole Moment    :      0.00000       0.00000      -2.61158
                        -----------------------------------------
Magnitude (a.u.)       :      2.61158
Magnitude (Debye)      :      6.63811

Rotational constants in cm-1:     0.000000     0.204456     0.204456
Rotational constants in MHz :     0.000000  6129.444038  6129.444038

                             ****ORCA TERMINATED NORMALLY****
TOTAL RUN TIME: 0 days 0 hours 5 minutes 22 seconds 451 msec
