                         Program Version 4.2.0 -  RELEASE  -
|  1> #
|  2> # 38_CoF wb97x-v/aug-cc-pvtz
|  3> #
|  4> ! wb97x-v aug-cc-pvtz def2/jk grid4 nofinalgrid
|  5>
|  6> *xyz 0 3
|  7>   Co  0.00000000000000      0.00000000000000      0.12338928235446
|  8>   F   0.00000000000000      0.00000000000000      1.87661071764554
|  9> *
| 10>
| 11> %pal
| 12> nprocs 24
| 13> end
| 14>
| 15>
| 16>                          ****END OF INPUT****

CARTESIAN COORDINATES (ANGSTROEM)
---------------------------------
  Co     0.000000    0.000000    0.123389
  F      0.000000    0.000000    1.876611

 Total Charge           Charge          ....    0
 Multiplicity           Mult            ....    3
 Number of Electrons    NEL             ....   36
 Basis Dimension        Dim             ....  139

ORBITAL ENERGIES
----------------
                 SPIN UP ORBITALS
  NO   OCC          E(Eh)            E(eV)
   0   1.0000    -277.467283     -7550.2686
   1   1.0000     -32.973604      -897.2574
   2   1.0000     -28.621224      -778.8231
   3   1.0000     -28.621224      -778.8231
   4   1.0000     -28.571393      -777.4671
   5   1.0000     -24.676791      -671.4896
   6   1.0000      -3.968109      -107.9777
   7   1.0000      -2.682715       -73.0004
   8   1.0000      -2.682715       -73.0004
   9   1.0000      -2.590596       -70.4937
  10   1.0000      -1.206244       -32.8236
  11   1.0000      -0.541384       -14.7318
  12   1.0000      -0.541384       -14.7318
  13   1.0000      -0.538931       -14.6650
  14   1.0000      -0.505445       -13.7539
  15   1.0000      -0.505445       -13.7539
  16   1.0000      -0.419446       -11.4137
  17   1.0000      -0.419446       -11.4137
  18   1.0000      -0.411493       -11.1973
  19   0.0000      -0.047052        -1.2803
  20   0.0000       0.027689         0.7535
  21   0.0000       0.027689         0.7535
  22   0.0000       0.033181         0.9029
  23   0.0000       0.040539         1.1031

                 SPIN DOWN ORBITALS
  NO   OCC          E(Eh)            E(eV)
   0   1.0000    -277.467350     -7550.2704
   1   1.0000     -32.919784      -895.7929
   2   1.0000     -28.569880      -777.4260
   3   1.0000     -28.569880      -777.4260
   4   1.0000     -28.543945      -776.7202
   5   1.0000     -24.676106      -671.4710
   6   1.0000      -3.845975      -104.6543
   7   1.0000      -2.524135       -68.6852
   8   1.0000      -2.524135       -68.6852
   9   1.0000      -2.511371       -68.3379
  10   1.0000      -1.203859       -32.7587
  11   1.0000      -0.498665       -13.5694
  12   1.0000      -0.482650       -13.1336
  13   1.0000      -0.482650       -13.1336
  14   1.0000      -0.381998       -10.3947
  15   1.0000      -0.381998       -10.3947
  16   1.0000      -0.305337        -8.3086
  17   0.0000      -0.029812        -0.8112
  18   0.0000      -0.029812        -0.8112
  19   0.0000      -0.008519        -0.2318
  20   0.0000       0.018854         0.5130
  21   0.0000       0.018854         0.5130

MULLIKEN ATOMIC CHARGES AND SPIN POPULATIONS
--------------------------------------------
   0 Co:    0.626047    1.958384
   1 F :   -0.626047    0.041616
Sum of atomic charges         :   -0.0000000

LOEWDIN ATOMIC CHARGES AND SPIN POPULATIONS
-------------------------------------------
   0 Co:    0.502699    2.029884
   1 F :   -0.502699   -0.029884

  Mayer bond orders larger than 0.100000
B(  0-Co,  1-F ) :   0.6705

FINAL SINGLE POINT ENERGY     -1482.457481556519

DIPOLE MOMENT
-------------
                                X             Y             Z
Electronic contribution:     -0.00000       0.00000      -2.34739
Nuclear contribution   :      0.00000       0.00000       0.74078
                        -----------------------------------------
Total Dipole Moment    :     -0.00000       0.00000      -1.60661
                        -----------------------------------------
Magnitude (a.u.)       :      1.60661
Magnitude (Debye)      :      4.08367

Rotational constants in cm-1:     0.000000     0.381744     0.381744
Rotational constants in MHz :     0.000000 11444.406260 11444.406260

                             ****ORCA TERMINATED NORMALLY****
TOTAL RUN TIME: 0 days 0 hours 7 minutes 19 seconds 554 msec
