                         Program Version 4.2.0 -  RELEASE  -
|  1> #
|  2> # 40_CoBr wb97x-v/aug-cc-pvtz
|  3> #
|  4> ! wb97x-v aug-cc-pvtz def2/jk grid4 nofinalgrid
|  5>
|  6> *xyz 0 3
|  7>   Co  0.00000000000000      0.00000000000000     -0.10327875603907
|  8>   Br  0.00000000000000      0.00000000000000      2.10327875603907
|  9> *
| 10>
| 11> %pal
| 12> nprocs 24
| 13> end
| 14>
| 15>
| 16>                          ****END OF INPUT****

CARTESIAN COORDINATES (ANGSTROEM)
---------------------------------
  Co     0.000000    0.000000   -0.103279
  Br     0.000000    0.000000    2.103279

 Total Charge           Charge          ....    0
 Multiplicity           Mult            ....    3
 Number of Electrons    NEL             ....   62
 Basis Dimension        Dim             ....  152

ORBITAL ENERGIES
----------------
                 SPIN UP ORBITALS
  NO   OCC          E(Eh)            E(eV)
   0   1.0000    -482.620734    -13132.7778
   1   1.0000    -277.426563     -7549.1606
   2   1.0000     -62.494538     -1700.5628
   3   1.0000     -56.299015     -1531.9741
   4   1.0000     -56.297605     -1531.9357
   5   1.0000     -56.297605     -1531.9357
   6   1.0000     -32.921640      -895.8434
   7   1.0000     -28.573750      -777.5313
   8   1.0000     -28.573750      -777.5313
   9   1.0000     -28.515084      -775.9349
  10   1.0000      -8.758420      -238.3287
  11   1.0000      -6.583348      -179.1420
  12   1.0000      -6.578440      -179.0084
  13   1.0000      -6.578440      -179.0084
  14   1.0000      -3.914221      -106.5114
  15   1.0000      -2.706698       -73.6530
  16   1.0000      -2.705182       -73.6117
  17   1.0000      -2.705182       -73.6117
  18   1.0000      -2.701299       -73.5061
  19   1.0000      -2.701269       -73.5053
  20   1.0000      -2.635139       -71.7058
  21   1.0000      -2.635139       -71.7058
  22   1.0000      -2.525450       -68.7210
  23   1.0000      -0.851054       -23.1584
  24   1.0000      -0.500448       -13.6179
  25   1.0000      -0.500445       -13.6178
  26   1.0000      -0.451620       -12.2892
  27   1.0000      -0.440942       -11.9986
  28   1.0000      -0.440942       -11.9986
  29   1.0000      -0.368450       -10.0260
  30   1.0000      -0.355264        -9.6672
  31   1.0000      -0.355264        -9.6672
  32   0.0000      -0.043719        -1.1897
  33   0.0000       0.023481         0.6390
  34   0.0000       0.023481         0.6390
  35   0.0000       0.028756         0.7825
  36   0.0000       0.039524         1.0755

                 SPIN DOWN ORBITALS
  NO   OCC          E(Eh)            E(eV)
   0   1.0000    -482.620794    -13132.7795
   1   1.0000    -277.426217     -7549.1512
   2   1.0000     -62.494573     -1700.5638
   3   1.0000     -56.299137     -1531.9774
   4   1.0000     -56.297642     -1531.9367
   5   1.0000     -56.297642     -1531.9367
   6   1.0000     -32.876375      -894.6117
   7   1.0000     -28.527423      -776.2706
   8   1.0000     -28.527423      -776.2706
   9   1.0000     -28.498507      -775.4838
  10   1.0000      -8.758509      -238.3312
  11   1.0000      -6.583589      -179.1486
  12   1.0000      -6.578481      -179.0096
  13   1.0000      -6.578481      -179.0096
  14   1.0000      -3.810421      -103.6868
  15   1.0000      -2.706888       -73.6582
  16   1.0000      -2.705325       -73.6156
  17   1.0000      -2.705325       -73.6156
  18   1.0000      -2.701321       -73.5067
  19   1.0000      -2.701291       -73.5059
  20   1.0000      -2.490945       -67.7821
  21   1.0000      -2.490945       -67.7821
  22   1.0000      -2.479069       -67.4589
  23   1.0000      -0.851495       -23.1704
  24   1.0000      -0.424372       -11.5477
  25   1.0000      -0.407012       -11.0754
  26   1.0000      -0.407012       -11.0754
  27   1.0000      -0.337541        -9.1850
  28   1.0000      -0.337541        -9.1850
  29   1.0000      -0.314256        -8.5514
  30   0.0000      -0.027886        -0.7588
  31   0.0000      -0.004819        -0.1311
  32   0.0000      -0.004818        -0.1311
  33   0.0000       0.021660         0.5894
  34   0.0000       0.021660         0.5894

MULLIKEN ATOMIC CHARGES AND SPIN POPULATIONS
--------------------------------------------
   0 Co:    0.478015    2.033381
   1 Br:   -0.478015   -0.033381
Sum of atomic charges         :   -0.0000000

LOEWDIN ATOMIC CHARGES AND SPIN POPULATIONS
-------------------------------------------
   0 Co:    0.011319    2.040895
   1 Br:   -0.011319   -0.040895

  Mayer bond orders larger than 0.100000
B(  0-Co,  1-Br) :   1.1368

FINAL SINGLE POINT ENERGY     -3956.610060100993

DIPOLE MOMENT
-------------
                                X             Y             Z
Electronic contribution:     -0.00000       0.00000       0.88796
Nuclear contribution   :      0.00000       0.00000      -2.84584
                        -----------------------------------------
Total Dipole Moment    :     -0.00000       0.00000      -1.95788
                        -----------------------------------------
Magnitude (a.u.)       :      1.95788
Magnitude (Debye)      :      4.97653

Rotational constants in cm-1:     0.000000     0.102086     0.102086
Rotational constants in MHz :     0.000000  3060.463500  3060.463500

                             ****ORCA TERMINATED NORMALLY****
TOTAL RUN TIME: 0 days 0 hours 10 minutes 33 seconds 329 msec
