                         Program Version 4.2.0 -  RELEASE  -
|  1> #
|  2> # 41_CoO wb97x-v/aug-cc-pvtz
|  3> #
|  4> ! wb97x-v aug-cc-pvtz def2/jk grid4 nofinalgrid
|  5>
|  6> *xyz 0 4
|  7>   Co  0.00000000000000      0.00000000000000      0.18722579130779
|  8>   O   0.00000000000000      0.00000000000000      1.81277420869221
|  9> *
| 10>
| 11> %pal
| 12> nprocs 24
| 13> end
| 14>
| 15>
| 16>                          ****END OF INPUT****

CARTESIAN COORDINATES (ANGSTROEM)
---------------------------------
  Co     0.000000    0.000000    0.187226
  O      0.000000    0.000000    1.812774

 Total Charge           Charge          ....    0
 Multiplicity           Mult            ....    4
 Number of Electrons    NEL             ....   35
 Basis Dimension        Dim             ....  139

ORBITAL ENERGIES
----------------
                 SPIN UP ORBITALS
  NO   OCC          E(Eh)            E(eV)
   0   1.0000    -277.410278     -7548.7174
   1   1.0000     -32.906640      -895.4352
   2   1.0000     -28.572184      -777.4886
   3   1.0000     -28.523834      -776.1730
   4   1.0000     -28.521453      -776.1082
   5   1.0000     -19.177655      -521.8505
   6   1.0000      -3.894164      -105.9656
   7   1.0000      -2.647239       -72.0350
   8   1.0000      -2.546777       -69.3013
   9   1.0000      -2.541787       -69.1655
  10   1.0000      -0.998109       -27.1599
  11   1.0000      -0.498508       -13.5651
  12   1.0000      -0.491427       -13.3724
  13   1.0000      -0.489842       -13.3293
  14   1.0000      -0.391017       -10.6401
  15   1.0000      -0.390851       -10.6356
  16   1.0000      -0.353039        -9.6067
  17   1.0000      -0.351450        -9.5634
  18   1.0000      -0.349735        -9.5168
  19   0.0000      -0.042930        -1.1682
  20   0.0000       0.024050         0.6544
  21   0.0000       0.024414         0.6643
  22   0.0000       0.026478         0.7205
  23   0.0000       0.039835         1.0840

                 SPIN DOWN ORBITALS
  NO   OCC          E(Eh)            E(eV)
   0   1.0000    -277.408985     -7548.6822
   1   1.0000     -32.860918      -894.1910
   2   1.0000     -28.520469      -776.0814
   3   1.0000     -28.493628      -775.3510
   4   1.0000     -28.492787      -775.3282
   5   1.0000     -19.163760      -521.4724
   6   1.0000      -3.792283      -103.1933
   7   1.0000      -2.484950       -67.6189
   8   1.0000      -2.463458       -67.0341
   9   1.0000      -2.461706       -66.9864
  10   1.0000      -0.954383       -25.9701
  11   1.0000      -0.410808       -11.1787
  12   1.0000      -0.367119        -9.9898
  13   1.0000      -0.366728        -9.9792
  14   1.0000      -0.336487        -9.1563
  15   1.0000      -0.336053        -9.1445
  16   0.0000      -0.046683        -1.2703
  17   0.0000       0.010542         0.2869
  18   0.0000       0.012397         0.3373
  19   0.0000       0.012778         0.3477
  20   0.0000       0.034496         0.9387

MULLIKEN ATOMIC CHARGES AND SPIN POPULATIONS
--------------------------------------------
   0 Co:    0.677181    2.311965
   1 O :   -0.677181    0.688035
Sum of atomic charges         :   -0.0000000

LOEWDIN ATOMIC CHARGES AND SPIN POPULATIONS
-------------------------------------------
   0 Co:    0.579461    2.337949
   1 O :   -0.579461    0.662051

  Mayer bond orders larger than 0.100000
B(  0-Co,  1-O ) :   1.9487

FINAL SINGLE POINT ENERGY     -1457.792945173135

DIPOLE MOMENT
-------------
                                X             Y             Z
Electronic contribution:     -0.00000      -0.00000      -3.98322
Nuclear contribution   :      0.00000       0.00000       1.61802
                        -----------------------------------------
Total Dipole Moment    :     -0.00000      -0.00000      -2.36520
                        -----------------------------------------
Magnitude (a.u.)       :      2.36520
Magnitude (Debye)      :      6.01187

Rotational constants in cm-1:     0.000000     0.507011     0.507011
Rotational constants in MHz :     0.000000 15199.819890 15199.819890

                             ****ORCA TERMINATED NORMALLY****
TOTAL RUN TIME: 0 days 0 hours 4 minutes 42 seconds 225 msec
