                         Program Version 4.2.0 -  RELEASE  -
|  1> #
|  2> # 43_NiH wb97x-v/aug-cc-pvtz
|  3> #
|  4> ! wb97x-v aug-cc-pvtz def2/jk grid4 nofinalgrid
|  5>
|  6> *xyz 0 2
|  7>   Ni  0.00000000000000      0.00000000000000      0.25339129346416
|  8>   H   0.00000000000000      0.00000000000000      1.74660870653584
|  9> *
| 10>
| 11> %pal
| 12> nprocs 24
| 13> end
| 14>
| 15>
| 16>                          ****END OF INPUT****

CARTESIAN COORDINATES (ANGSTROEM)
---------------------------------
  Ni     0.000000    0.000000    0.253391
  H      0.000000    0.000000    1.746609

 Total Charge           Charge          ....    0
 Multiplicity           Mult            ....    2
 Number of Electrons    NEL             ....   29
 Basis Dimension        Dim             ....  116

ORBITAL ENERGIES
----------------
                 SPIN UP ORBITALS
  NO   OCC          E(Eh)            E(eV)
   0   1.0000    -299.640269     -8153.6263
   1   1.0000     -35.746819      -972.7204
   2   1.0000     -31.183956      -848.5586
   3   1.0000     -31.152130      -847.6926
   4   1.0000     -31.152130      -847.6926
   5   1.0000      -4.079126      -110.9987
   6   1.0000      -2.713065       -73.8263
   7   1.0000      -2.649134       -72.0866
   8   1.0000      -2.649134       -72.0866
   9   1.0000      -0.430027       -11.7016
  10   1.0000      -0.357521        -9.7286
  11   1.0000      -0.357521        -9.7286
  12   1.0000      -0.331422        -9.0185
  13   1.0000      -0.331422        -9.0185
  14   1.0000      -0.325687        -8.8624
  15   0.0000      -0.009216        -0.2508
  16   0.0000       0.025131         0.6839
  17   0.0000       0.025131         0.6839
  18   0.0000       0.031984         0.8703
  19   0.0000       0.041297         1.1238

                 SPIN DOWN ORBITALS
  NO   OCC          E(Eh)            E(eV)
   0   1.0000    -299.639819     -8153.6140
   1   1.0000     -35.728197      -972.2137
   2   1.0000     -31.159738      -847.8996
   3   1.0000     -31.141975      -847.4162
   4   1.0000     -31.141975      -847.4162
   5   1.0000      -4.037960      -109.8785
   6   1.0000      -2.633846       -71.6706
   7   1.0000      -2.622717       -71.3678
   8   1.0000      -2.622717       -71.3678
   9   1.0000      -0.384768       -10.4701
  10   1.0000      -0.339725        -9.2444
  11   1.0000      -0.339725        -9.2444
  12   1.0000      -0.307730        -8.3738
  13   1.0000      -0.307730        -8.3738
  14   0.0000      -0.014607        -0.3975
  15   0.0000       0.027785         0.7561
  16   0.0000       0.027785         0.7561
  17   0.0000       0.029560         0.8044
  18   0.0000       0.039119         1.0645

MULLIKEN ATOMIC CHARGES AND SPIN POPULATIONS
--------------------------------------------
   0 Ni:    0.086984    1.013722
   1 H :   -0.086984   -0.013722
Sum of atomic charges         :    0.0000000

LOEWDIN ATOMIC CHARGES AND SPIN POPULATIONS
-------------------------------------------
   0 Ni:    0.561286    0.973669
   1 H :   -0.561286    0.026331

  Mayer bond orders larger than 0.100000
B(  0-Ni,  1-H ) :   1.0453

FINAL SINGLE POINT ENERGY     -1508.748673982275

DIPOLE MOMENT
-------------
                                X             Y             Z
Electronic contribution:      0.00000       0.00000      -2.73493
Nuclear contribution   :      0.00000       0.00000       1.44028
                        -----------------------------------------
Total Dipole Moment    :      0.00000       0.00000      -1.29465
                        -----------------------------------------
Magnitude (a.u.)       :      1.29465
Magnitude (Debye)      :      3.29073

Rotational constants in cm-1:     0.000000     7.629300     7.629300
Rotational constants in MHz :     0.000000 228720.664008 228720.664008

                             ****ORCA TERMINATED NORMALLY****
TOTAL RUN TIME: 0 days 0 hours 4 minutes 26 seconds 694 msec
