                         Program Version 4.2.0 -  RELEASE  -
|  1> #
|  2> # 48_NiS wb97x-v/aug-cc-pvtz
|  3> #
|  4> ! wb97x-v aug-cc-pvtz def2/jk grid4 nofinalgrid
|  5>
|  6> *xyz 0 3
|  7>   Ni  0.00000000000000      0.00000000000000      0.01491413562016
|  8>   S   0.00000000000000      0.00000000000000      1.98508586437984
|  9> *
| 10>
| 11> %pal
| 12> nprocs 24
| 13> end
| 14>
| 15>
| 16>                          ****END OF INPUT****

CARTESIAN COORDINATES (ANGSTROEM)
---------------------------------
  Ni     0.000000    0.000000    0.014914
  S      0.000000    0.000000    1.985086

 Total Charge           Charge          ....    0
 Multiplicity           Mult            ....    3
 Number of Electrons    NEL             ....   44
 Basis Dimension        Dim             ....  143

ORBITAL ENERGIES
----------------
                 SPIN UP ORBITALS
  NO   OCC          E(Eh)            E(eV)
   0   1.0000    -299.722706     -8155.8695
   1   1.0000     -88.869239     -2418.2549
   2   1.0000     -35.841407      -975.2943
   3   1.0000     -31.270768      -850.9209
   4   1.0000     -31.248134      -850.3050
   5   1.0000     -31.248134      -850.3050
   6   1.0000      -8.023387      -218.3275
   7   1.0000      -5.979066      -162.6987
   8   1.0000      -5.979066      -162.6987
   9   1.0000      -5.974468      -162.5735
  10   1.0000      -4.173027      -113.5538
  11   1.0000      -2.796513       -76.0970
  12   1.0000      -2.747341       -74.7590
  13   1.0000      -2.747341       -74.7590
  14   1.0000      -0.790326       -21.5059
  15   1.0000      -0.475846       -12.9484
  16   1.0000      -0.475846       -12.9484
  17   1.0000      -0.467659       -12.7257
  18   1.0000      -0.415456       -11.3051
  19   1.0000      -0.415455       -11.3051
  20   1.0000      -0.353406        -9.6167
  21   1.0000      -0.343557        -9.3487
  22   1.0000      -0.343557        -9.3487
  23   0.0000      -0.037367        -1.0168
  24   0.0000       0.026501         0.7211
  25   0.0000       0.026501         0.7211
  26   0.0000       0.029632         0.8063
  27   0.0000       0.038936         1.0595

                 SPIN DOWN ORBITALS
  NO   OCC          E(Eh)            E(eV)
   0   1.0000    -299.722351     -8155.8598
   1   1.0000     -88.864723     -2418.1320
   2   1.0000     -35.813595      -974.5375
   3   1.0000     -31.241000      -850.1108
   4   1.0000     -31.229504      -849.7980
   5   1.0000     -31.229504      -849.7980
   6   1.0000      -8.019077      -218.2102
   7   1.0000      -5.971379      -162.4895
   8   1.0000      -5.970008      -162.4522
   9   1.0000      -5.970008      -162.4522
  10   1.0000      -4.114835      -111.9704
  11   1.0000      -2.712722       -73.8169
  12   1.0000      -2.695075       -73.3367
  13   1.0000      -2.695075       -73.3367
  14   1.0000      -0.749754       -20.4018
  15   1.0000      -0.442116       -12.0306
  16   1.0000      -0.384482       -10.4623
  17   1.0000      -0.384481       -10.4623
  18   1.0000      -0.349465        -9.5094
  19   1.0000      -0.349465        -9.5094
  20   1.0000      -0.341083        -9.2813
  21   0.0000      -0.035813        -0.9745
  22   0.0000      -0.035813        -0.9745
  23   0.0000      -0.031491        -0.8569
  24   0.0000       0.029989         0.8160
  25   0.0000       0.029989         0.8160

MULLIKEN ATOMIC CHARGES AND SPIN POPULATIONS
--------------------------------------------
   0 Ni:    0.298388    1.045864
   1 S :   -0.298388    0.954136
Sum of atomic charges         :    0.0000000

LOEWDIN ATOMIC CHARGES AND SPIN POPULATIONS
-------------------------------------------
   0 Ni:    0.010705    1.171564
   1 S :   -0.010705    0.828436

  Mayer bond orders larger than 0.100000
B(  0-Ni,  1-S ) :   2.2378

FINAL SINGLE POINT ENERGY     -1906.322376636438

DIPOLE MOMENT
-------------
                                X             Y             Z
Electronic contribution:     -0.00000       0.00000      -3.65777
Nuclear contribution   :      0.00000       0.00000       1.70320
                        -----------------------------------------
Total Dipole Moment    :     -0.00000       0.00000      -1.95457
                        -----------------------------------------
Magnitude (a.u.)       :      1.95457
Magnitude (Debye)      :      4.96811

Rotational constants in cm-1:     0.000000     0.209451     0.209451
Rotational constants in MHz :     0.000000  6279.170942  6279.170942

                             ****ORCA TERMINATED NORMALLY****
TOTAL RUN TIME: 0 days 0 hours 5 minutes 22 seconds 158 msec
