                         Program Version 4.2.0 -  RELEASE  -
|  1> #
|  2> # 49_CuH wb97x-v/aug-cc-pvtz
|  3> #
|  4> ! wb97x-v aug-cc-pvtz def2/jk grid4 nofinalgrid
|  5>
|  6> *xyz 0 1
|  7>   Cu  0.00000000000000      0.00000000000000      0.26188782360473
|  8>   H   0.00000000000000      0.00000000000000      1.73811217639527
|  9> *
| 10>
| 11> %pal
| 12> nprocs 24
| 13> end
| 14>
| 15>
| 16>                          ****END OF INPUT****

CARTESIAN COORDINATES (ANGSTROEM)
---------------------------------
  Cu     0.000000    0.000000    0.261888
  H      0.000000    0.000000    1.738112

 Total Charge           Charge          ....    0
 Multiplicity           Mult            ....    1
 Number of Electrons    NEL             ....   30
 Basis Dimension        Dim             ....  116

ORBITAL ENERGIES
----------------

  NO   OCC          E(Eh)            E(eV)
   0   2.0000    -322.847056     -8785.1150
   1   2.0000     -38.832506     -1056.6862
   2   2.0000     -34.029081      -925.9784
   3   2.0000     -34.027243      -925.9284
   4   2.0000     -34.027243      -925.9284
   5   2.0000      -4.399647      -119.7205
   6   2.0000      -2.897987       -78.8582
   7   2.0000      -2.891221       -78.6741
   8   2.0000      -2.891221       -78.6741
   9   2.0000      -0.436166       -11.8687
  10   2.0000      -0.390831       -10.6351
  11   2.0000      -0.390831       -10.6351
  12   2.0000      -0.384862       -10.4726
  13   2.0000      -0.384861       -10.4726
  14   2.0000      -0.332157        -9.0385
  15   0.0000      -0.011647        -0.3169
  16   0.0000       0.026668         0.7257
  17   0.0000       0.026668         0.7257
  18   0.0000       0.034529         0.9396
  19   0.0000       0.041624         1.1326

MULLIKEN ATOMIC CHARGES
-----------------------
   0 Cu:    0.116230
   1 H :   -0.116230
Sum of atomic charges:   -0.0000000

LOEWDIN ATOMIC CHARGES
----------------------
   0 Cu:    0.494378
   1 H :   -0.494378

  Mayer bond orders larger than 0.100000
B(  0-Cu,  1-H ) :   1.0424

FINAL SINGLE POINT ENERGY     -1640.965909383233

DIPOLE MOMENT
-------------
                                X             Y             Z
Electronic contribution:     -0.00000       0.00000      -2.72127
Nuclear contribution   :      0.00000       0.00000       1.48294
                        -----------------------------------------
Total Dipole Moment    :     -0.00000       0.00000      -1.23833
                        -----------------------------------------
Magnitude (a.u.)       :      1.23833
Magnitude (Debye)      :      3.14759

Rotational constants in cm-1:     0.000000     7.795898     7.795898
Rotational constants in MHz :     0.000000 233715.143643 233715.143643

                             ****ORCA TERMINATED NORMALLY****
TOTAL RUN TIME: 0 days 0 hours 3 minutes 35 seconds 959 msec
