                         Program Version 4.2.0 -  RELEASE  -
|  1> #
|  2> # 50_CuF wb97x-v/aug-cc-pvtz
|  3> #
|  4> ! wb97x-v aug-cc-pvtz def2/jk grid4 nofinalgrid
|  5>
|  6> *xyz 0 1
|  7>   Cu  0.00000000000000      0.00000000000000      0.12224745624860
|  8>   F   0.00000000000000      0.00000000000000      1.87775254375140
|  9> *
| 10>
| 11> %pal
| 12> nprocs 24
| 13> end
| 14>
| 15>
| 16>                          ****END OF INPUT****

CARTESIAN COORDINATES (ANGSTROEM)
---------------------------------
  Cu     0.000000    0.000000    0.122247
  F      0.000000    0.000000    1.877753

 Total Charge           Charge          ....    0
 Multiplicity           Mult            ....    1
 Number of Electrons    NEL             ....   38
 Basis Dimension        Dim             ....  139

ORBITAL ENERGIES
----------------

  NO   OCC          E(Eh)            E(eV)
   0   2.0000    -322.868216     -8785.6908
   1   2.0000     -38.850635     -1057.1795
   2   2.0000     -34.046629      -926.4559
   3   2.0000     -34.046629      -926.4559
   4   2.0000     -34.045569      -926.4270
   5   2.0000     -24.653823      -670.8646
   6   2.0000      -4.422861      -120.3522
   7   2.0000      -2.919166       -79.4345
   8   2.0000      -2.916325       -79.3572
   9   2.0000      -2.916325       -79.3572
  10   2.0000      -1.178875       -32.0788
  11   2.0000      -0.493772       -13.4362
  12   2.0000      -0.461779       -12.5657
  13   2.0000      -0.461779       -12.5657
  14   2.0000      -0.411233       -11.1902
  15   2.0000      -0.411233       -11.1902
  16   2.0000      -0.382405       -10.4058
  17   2.0000      -0.382405       -10.4058
  18   2.0000      -0.369746       -10.0613
  19   0.0000      -0.040294        -1.0965
  20   0.0000       0.027554         0.7498
  21   0.0000       0.027554         0.7498
  22   0.0000       0.030475         0.8293
  23   0.0000       0.043819         1.1924

MULLIKEN ATOMIC CHARGES
-----------------------
   0 Cu:    0.703170
   1 F :   -0.703170
Sum of atomic charges:   -0.0000000

LOEWDIN ATOMIC CHARGES
----------------------
   0 Cu:    0.440896
   1 F :   -0.440896

  Mayer bond orders larger than 0.100000
B(  0-Cu,  1-F ) :   0.5781

FINAL SINGLE POINT ENERGY     -1740.253517254191

DIPOLE MOMENT
-------------
                                X             Y             Z
Electronic contribution:     -0.00000      -0.00000      -2.96257
Nuclear contribution   :      0.00000       0.00000       0.84427
                        -----------------------------------------
Total Dipole Moment    :     -0.00000      -0.00000      -2.11831
                        -----------------------------------------
Magnitude (a.u.)       :      2.11831
Magnitude (Debye)      :      5.38431

Rotational constants in cm-1:     0.000000     0.374004     0.374004
Rotational constants in MHz :     0.000000 11212.347169 11212.347169

                             ****ORCA TERMINATED NORMALLY****
TOTAL RUN TIME: 0 days 0 hours 4 minutes 21 seconds 315 msec
