                         Program Version 4.2.0 -  RELEASE  -
|  1> #
|  2> # 51_CuCl wb97x-v/aug-cc-pvtz
|  3> #
|  4> ! wb97x-v aug-cc-pvtz def2/jk grid4 nofinalgrid
|  5>
|  6> *xyz 0 1
|  7>   Cu  0.00000000000000      0.00000000000000     -0.03459121817691
|  8>   Cl  0.00000000000000      0.00000000000000      2.03459121817691
|  9> *
| 10>
| 11> %pal
| 12> nprocs 24
| 13> end
| 14>
| 15>
| 16>                          ****END OF INPUT****

CARTESIAN COORDINATES (ANGSTROEM)
---------------------------------
  Cu     0.000000    0.000000   -0.034591
  Cl     0.000000    0.000000    2.034591

 Total Charge           Charge          ....    0
 Multiplicity           Mult            ....    1
 Number of Electrons    NEL             ....   46
 Basis Dimension        Dim             ....  143

ORBITAL ENERGIES
----------------

  NO   OCC          E(Eh)            E(eV)
   0   2.0000    -322.876757     -8785.9232
   1   2.0000    -101.492604     -2761.7542
   2   2.0000     -38.858767     -1057.4008
   3   2.0000     -34.054603      -926.6729
   4   2.0000     -34.054603      -926.6729
   5   2.0000     -34.054247      -926.6632
   6   2.0000      -9.507896      -258.7230
   7   2.0000      -7.260581      -197.5704
   8   2.0000      -7.256511      -197.4597
   9   2.0000      -7.256511      -197.4597
  10   2.0000      -4.430459      -120.5589
  11   2.0000      -2.927740       -79.6678
  12   2.0000      -2.923781       -79.5601
  13   2.0000      -2.923781       -79.5601
  14   2.0000      -0.883191       -24.0328
  15   2.0000      -0.466825       -12.7030
  16   2.0000      -0.442419       -12.0388
  17   2.0000      -0.442419       -12.0388
  18   2.0000      -0.418717       -11.3939
  19   2.0000      -0.418715       -11.3938
  20   2.0000      -0.378070       -10.2878
  21   2.0000      -0.366424        -9.9709
  22   2.0000      -0.366424        -9.9709
  23   0.0000      -0.041930        -1.1410
  24   0.0000       0.025916         0.7052
  25   0.0000       0.025916         0.7052
  26   0.0000       0.029340         0.7984
  27   0.0000       0.040643         1.1060

MULLIKEN ATOMIC CHARGES
-----------------------
   0 Cu:    0.569334
   1 Cl:   -0.569334
Sum of atomic charges:   -0.0000000

LOEWDIN ATOMIC CHARGES
----------------------
   0 Cu:    0.059112
   1 Cl:   -0.059112

  Mayer bond orders larger than 0.100000
B(  0-Cu,  1-Cl) :   0.8949

FINAL SINGLE POINT ENERGY     -2100.594113971580

DIPOLE MOMENT
-------------
                                X             Y             Z
Electronic contribution:     -0.00000       0.00000      -4.21364
Nuclear contribution   :      0.00000       0.00000       2.06219
                        -----------------------------------------
Total Dipole Moment    :     -0.00000       0.00000      -2.15146
                        -----------------------------------------
Magnitude (a.u.)       :      2.15146
Magnitude (Debye)      :      5.46857

Rotational constants in cm-1:     0.000000     0.173013     0.173013
Rotational constants in MHz :     0.000000  5186.804112  5186.804112

                             ****ORCA TERMINATED NORMALLY****
TOTAL RUN TIME: 0 days 0 hours 5 minutes 8 seconds 162 msec
