                         Program Version 4.2.0 -  RELEASE  -
|  1> #
|  2> # 52_CuBr wb97x-v/aug-cc-pvtz
|  3> #
|  4> ! wb97x-v aug-cc-pvtz def2/jk grid4 nofinalgrid
|  5>
|  6> *xyz 0 1
|  7>   Cu  0.00000000000000      0.00000000000000     -0.09600479667781
|  8>   Br  0.00000000000000      0.00000000000000      2.09600479667781
|  9> *
| 10>
| 11> %pal
| 12> nprocs 24
| 13> end
| 14>
| 15>
| 16>                          ****END OF INPUT****

CARTESIAN COORDINATES (ANGSTROEM)
---------------------------------
  Cu     0.000000    0.000000   -0.096005
  Br     0.000000    0.000000    2.096005

 Total Charge           Charge          ....    0
 Multiplicity           Mult            ....    1
 Number of Electrons    NEL             ....   64
 Basis Dimension        Dim             ....  152

ORBITAL ENERGIES
----------------

  NO   OCC          E(Eh)            E(eV)
   0   2.0000    -482.616313    -13132.6575
   1   2.0000    -322.877157     -8785.9341
   2   2.0000     -62.490119     -1700.4426
   3   2.0000     -56.294719     -1531.8572
   4   2.0000     -56.293149     -1531.8145
   5   2.0000     -56.293149     -1531.8145
   6   2.0000     -38.858848     -1057.4030
   7   2.0000     -34.054689      -926.6752
   8   2.0000     -34.054689      -926.6752
   9   2.0000     -34.054438      -926.6684
  10   2.0000      -8.753975      -238.2078
  11   2.0000      -6.579216      -179.0296
  12   2.0000      -6.573845      -178.8834
  13   2.0000      -6.573845      -178.8834
  14   2.0000      -4.430454      -120.5588
  15   2.0000      -2.927842       -79.6706
  16   2.0000      -2.923840       -79.5617
  17   2.0000      -2.923840       -79.5617
  18   2.0000      -2.702422       -73.5366
  19   2.0000      -2.700833       -73.4934
  20   2.0000      -2.700833       -73.4934
  21   2.0000      -2.696627       -73.3790
  22   2.0000      -2.696595       -73.3781
  23   2.0000      -0.847077       -23.0501
  24   2.0000      -0.453830       -12.3494
  25   2.0000      -0.436314       -11.8727
  26   2.0000      -0.436314       -11.8727
  27   2.0000      -0.418910       -11.3991
  28   2.0000      -0.418905       -11.3990
  29   2.0000      -0.375147       -10.2083
  30   2.0000      -0.352855        -9.6017
  31   2.0000      -0.352855        -9.6017
  32   0.0000      -0.042110        -1.1459
  33   0.0000       0.025192         0.6855
  34   0.0000       0.025192         0.6855
  35   0.0000       0.028943         0.7876
  36   0.0000       0.042550         1.1579

MULLIKEN ATOMIC CHARGES
-----------------------
   0 Cu:    0.533968
   1 Br:   -0.533968
Sum of atomic charges:   -0.0000000

LOEWDIN ATOMIC CHARGES
----------------------
   0 Cu:   -0.051222
   1 Br:    0.051222

  Mayer bond orders larger than 0.100000
B(  0-Cu,  1-Br) :   0.9192

FINAL SINGLE POINT ENERGY     -4214.414576834248

DIPOLE MOMENT
-------------
                                X             Y             Z
Electronic contribution:     -0.00000       0.00000       0.58106
Nuclear contribution   :      0.00000       0.00000      -2.68116
                        -----------------------------------------
Total Dipole Moment    :     -0.00000       0.00000      -2.10010
                        -----------------------------------------
Magnitude (a.u.)       :      2.10010
Magnitude (Debye)      :      5.33803

Rotational constants in cm-1:     0.000000     0.099117     0.099117
Rotational constants in MHz :     0.000000  2971.467067  2971.467067

                             ****ORCA TERMINATED NORMALLY****
TOTAL RUN TIME: 0 days 0 hours 7 minutes 16 seconds 130 msec
