                         Program Version 4.2.0 -  RELEASE  -
|  1> #
|  2> # 55_ZnH wb97x-v/aug-cc-pvtz
|  3> #
|  4> ! wb97x-v aug-cc-pvtz def2/jk grid4 nofinalgrid
|  5>
|  6> *xyz 0 2
|  7>   Zn  0.00000000000000      0.00000000000000      0.19402109306576
|  8>   H   0.00000000000000      0.00000000000000      1.80597890693424
|  9> *
| 10>
| 11> %pal
| 12> nprocs 24
| 13> end
| 14>
| 15>
| 16>                          ****END OF INPUT****

CARTESIAN COORDINATES (ANGSTROEM)
---------------------------------
  Zn     0.000000    0.000000    0.194021
  H      0.000000    0.000000    1.805979

 Total Charge           Charge          ....    0
 Multiplicity           Mult            ....    2
 Number of Electrons    NEL             ....   31
 Basis Dimension        Dim             ....  116

ORBITAL ENERGIES
----------------
                 SPIN UP ORBITALS
  NO   OCC          E(Eh)            E(eV)
   0   1.0000    -347.111264     -9445.3777
   1   1.0000     -42.254246     -1149.7965
   2   1.0000     -37.224028     -1012.9173
   3   1.0000     -37.224028     -1012.9173
   4   1.0000     -37.222509     -1012.8760
   5   1.0000      -4.944448      -134.5453
   6   1.0000      -3.336659       -90.7951
   7   1.0000      -3.336659       -90.7951
   8   1.0000      -3.331561       -90.6564
   9   1.0000      -0.625133       -17.0107
  10   1.0000      -0.618914       -16.8415
  11   1.0000      -0.618914       -16.8415
  12   1.0000      -0.614789       -16.7293
  13   1.0000      -0.614789       -16.7293
  14   1.0000      -0.443793       -12.0762
  15   1.0000      -0.276690        -7.5291
  16   0.0000       0.015010         0.4084
  17   0.0000       0.015010         0.4084
  18   0.0000       0.028534         0.7765
  19   0.0000       0.037194         1.0121
  20   0.0000       0.066180         1.8008

                 SPIN DOWN ORBITALS
  NO   OCC          E(Eh)            E(eV)
   0   1.0000    -347.110388     -9445.3538
   1   1.0000     -42.253629     -1149.7797
   2   1.0000     -37.223772     -1012.9103
   3   1.0000     -37.223772     -1012.9103
   4   1.0000     -37.221074     -1012.8369
   5   1.0000      -4.942857      -134.5020
   6   1.0000      -3.335480       -90.7630
   7   1.0000      -3.335480       -90.7630
   8   1.0000      -3.329829       -90.6092
   9   1.0000      -0.617062       -16.7911
  10   1.0000      -0.617039       -16.7905
  11   1.0000      -0.617039       -16.7905
  12   1.0000      -0.612347       -16.6628
  13   1.0000      -0.612347       -16.6628
  14   1.0000      -0.409023       -11.1301
  15   0.0000      -0.020685        -0.5629
  16   0.0000       0.024017         0.6535
  17   0.0000       0.024017         0.6535
  18   0.0000       0.032301         0.8790
  19   0.0000       0.049862         1.3568

MULLIKEN ATOMIC CHARGES AND SPIN POPULATIONS
--------------------------------------------
   0 Zn:    0.181773    0.762199
   1 H :   -0.181773    0.237801
Sum of atomic charges         :   -0.0000000

LOEWDIN ATOMIC CHARGES AND SPIN POPULATIONS
-------------------------------------------
   0 Zn:    0.529072    0.801744
   1 H :   -0.529072    0.198256

  Mayer bond orders larger than 0.100000
B(  0-Zn,  1-H ) :   0.8602

FINAL SINGLE POINT ENERGY     -1779.803477631026

DIPOLE MOMENT
-------------
                                X             Y             Z
Electronic contribution:      0.00000       0.00000      -1.86562
Nuclear contribution   :      0.00000       0.00000       1.61237
                        -----------------------------------------
Total Dipole Moment    :      0.00000       0.00000      -0.25325
                        -----------------------------------------
Magnitude (a.u.)       :      0.25325
Magnitude (Debye)      :      0.64371

Rotational constants in cm-1:     0.000000     6.535423     6.535423
Rotational constants in MHz :     0.000000 195927.048997 195927.048997

                             ****ORCA TERMINATED NORMALLY****
TOTAL RUN TIME: 0 days 0 hours 3 minutes 32 seconds 951 msec
