                         Program Version 4.2.0 -  RELEASE  -
|  1> #
|  2> # 57_ZnCl wb97x-v/aug-cc-pvtz
|  3> #
|  4> ! wb97x-v aug-cc-pvtz def2/jk grid4 nofinalgrid
|  5>
|  6> *xyz 0 2
|  7>   Zn  0.00000000000000      0.00000000000000     -0.08307444970280
|  8>   Cl  0.00000000000000      0.00000000000000      2.08307444970280
|  9> *
| 10>
| 11> %pal
| 12> nprocs 24
| 13> end
| 14>
| 15>
| 16>                          ****END OF INPUT****

CARTESIAN COORDINATES (ANGSTROEM)
---------------------------------
  Zn     0.000000    0.000000   -0.083074
  Cl     0.000000    0.000000    2.083074

 Total Charge           Charge          ....    0
 Multiplicity           Mult            ....    2
 Number of Electrons    NEL             ....   47
 Basis Dimension        Dim             ....  143

ORBITAL ENERGIES
----------------
                 SPIN UP ORBITALS
  NO   OCC          E(Eh)            E(eV)
   0   1.0000    -347.144668     -9446.2867
   1   1.0000    -101.517381     -2762.4284
   2   1.0000     -42.285358     -1150.6431
   3   1.0000     -37.255392     -1013.7707
   4   1.0000     -37.255392     -1013.7707
   5   1.0000     -37.253594     -1013.7218
   6   1.0000      -9.533009      -259.4064
   7   1.0000      -7.286821      -198.2845
   8   1.0000      -7.281421      -198.1375
   9   1.0000      -7.281421      -198.1375
  10   1.0000      -4.978126      -135.4617
  11   1.0000      -3.370429       -91.7140
  12   1.0000      -3.370429       -91.7140
  13   1.0000      -3.365692       -91.5851
  14   1.0000      -0.914823       -24.8936
  15   1.0000      -0.653159       -17.7734
  16   1.0000      -0.652783       -17.7631
  17   1.0000      -0.652777       -17.7630
  18   1.0000      -0.651550       -17.7296
  19   1.0000      -0.651550       -17.7296
  20   1.0000      -0.476421       -12.9641
  21   1.0000      -0.410627       -11.1737
  22   1.0000      -0.410627       -11.1737
  23   1.0000      -0.321103        -8.7377
  24   0.0000       0.013559         0.3690
  25   0.0000       0.013559         0.3690
  26   0.0000       0.025821         0.7026
  27   0.0000       0.036404         0.9906
  28   0.0000       0.059748         1.6258

                 SPIN DOWN ORBITALS
  NO   OCC          E(Eh)            E(eV)
   0   1.0000    -347.143451     -9446.2535
   1   1.0000    -101.516296     -2762.3988
   2   1.0000     -42.284588     -1150.6221
   3   1.0000     -37.255072     -1013.7620
   4   1.0000     -37.255072     -1013.7620
   5   1.0000     -37.252317     -1013.6871
   6   1.0000      -9.531975      -259.3782
   7   1.0000      -7.283428      -198.1922
   8   1.0000      -7.280706      -198.1181
   9   1.0000      -7.280706      -198.1181
  10   1.0000      -4.976079      -135.4060
  11   1.0000      -3.368812       -91.6700
  12   1.0000      -3.368812       -91.6700
  13   1.0000      -3.364516       -91.5531
  14   1.0000      -0.906780       -24.6747
  15   1.0000      -0.649871       -17.6839
  16   1.0000      -0.649865       -17.6837
  17   1.0000      -0.648788       -17.6544
  18   1.0000      -0.648788       -17.6544
  19   1.0000      -0.647421       -17.6172
  20   1.0000      -0.454076       -12.3560
  21   1.0000      -0.408204       -11.1078
  22   1.0000      -0.408204       -11.1078
  23   0.0000      -0.061243        -1.6665
  24   0.0000       0.027787         0.7561
  25   0.0000       0.027787         0.7561
  26   0.0000       0.037556         1.0220
  27   0.0000       0.041044         1.1169

MULLIKEN ATOMIC CHARGES AND SPIN POPULATIONS
--------------------------------------------
   0 Zn:    0.531390    0.889071
   1 Cl:   -0.531390    0.110929
Sum of atomic charges         :   -0.0000000

LOEWDIN ATOMIC CHARGES AND SPIN POPULATIONS
-------------------------------------------
   0 Zn:    0.233466    0.811518
   1 Cl:   -0.233466    0.188482

  Mayer bond orders larger than 0.100000
B(  0-Zn,  1-Cl) :   0.7518

FINAL SINGLE POINT ENERGY     -2239.437438816462

DIPOLE MOMENT
-------------
                                X             Y             Z
Electronic contribution:      0.00000      -0.00000      -3.11653
Nuclear contribution   :      0.00000       0.00000       1.94334
                        -----------------------------------------
Total Dipole Moment    :      0.00000      -0.00000      -1.17319
                        -----------------------------------------
Magnitude (a.u.)       :      1.17319
Magnitude (Debye)      :      2.98201

Rotational constants in cm-1:     0.000000     0.156288     0.156288
Rotational constants in MHz :     0.000000  4685.390286  4685.390286

                             ****ORCA TERMINATED NORMALLY****
TOTAL RUN TIME: 0 days 0 hours 4 minutes 54 seconds 816 msec
