                         Program Version 4.2.0 -  RELEASE  -
|  1> #
|  2> # 60_ZnS wb97x-v/aug-cc-pvtz
|  3> #
|  4> ! wb97x-v aug-cc-pvtz def2/jk grid4 nofinalgrid
|  5>
|  6> *xyz 0 1
|  7>   Zn  0.00000000000000      0.00000000000000     -0.02757018403008
|  8>   S   0.00000000000000      0.00000000000000      2.02757018403008
|  9> *
| 10>
| 11> %pal
| 12> nprocs 24
| 13> end
| 14>
| 15>
| 16>                          ****END OF INPUT****

CARTESIAN COORDINATES (ANGSTROEM)
---------------------------------
  Zn     0.000000    0.000000   -0.027570
  S      0.000000    0.000000    2.027570

 Total Charge           Charge          ....    0
 Multiplicity           Mult            ....    1
 Number of Electrons    NEL             ....   46
 Basis Dimension        Dim             ....  143

ORBITAL ENERGIES
----------------

  NO   OCC          E(Eh)            E(eV)
   0   2.0000    -347.164598     -9446.8290
   1   2.0000     -88.850956     -2417.7574
   2   2.0000     -42.307172     -1151.2367
   3   2.0000     -37.276436     -1014.3434
   4   2.0000     -37.276436     -1014.3434
   5   2.0000     -37.276420     -1014.3429
   6   2.0000      -8.004899      -217.8244
   7   2.0000      -5.964276      -162.2962
   8   2.0000      -5.954311      -162.0250
   9   2.0000      -5.954311      -162.0250
  10   2.0000      -4.998616      -136.0193
  11   2.0000      -3.391135       -92.2775
  12   2.0000      -3.388148       -92.1962
  13   2.0000      -3.388148       -92.1962
  14   2.0000      -0.777080       -21.1454
  15   2.0000      -0.673409       -18.3244
  16   2.0000      -0.673409       -18.3244
  17   2.0000      -0.667585       -18.1659
  18   2.0000      -0.667581       -18.1658
  19   2.0000      -0.659507       -17.9461
  20   2.0000      -0.398839       -10.8530
  21   2.0000      -0.322315        -8.7706
  22   2.0000      -0.322315        -8.7706
  23   0.0000      -0.086823        -2.3626
  24   0.0000       0.018595         0.5060
  25   0.0000       0.018595         0.5060
  26   0.0000       0.020863         0.5677
  27   0.0000       0.043958         1.1962

MULLIKEN ATOMIC CHARGES
-----------------------
   0 Zn:    0.561923
   1 S :   -0.561923
Sum of atomic charges:   -0.0000000

LOEWDIN ATOMIC CHARGES
----------------------
   0 Zn:    0.350484
   1 S :   -0.350484

  Mayer bond orders larger than 0.100000
B(  0-Zn,  1-S ) :   1.6529

FINAL SINGLE POINT ENERGY     -2177.370470711579

DIPOLE MOMENT
-------------
                                X             Y             Z
Electronic contribution:     -0.00000       0.00000      -5.79276
Nuclear contribution   :      0.00000       0.00000       3.35914
                        -----------------------------------------
Total Dipole Moment    :     -0.00000       0.00000      -2.43362
                        -----------------------------------------
Magnitude (a.u.)       :      2.43362
Magnitude (Debye)      :      6.18577

Rotational constants in cm-1:     0.000000     0.185542     0.185542
Rotational constants in MHz :     0.000000  5562.415993  5562.415993

                             ****ORCA TERMINATED NORMALLY****
TOTAL RUN TIME: 0 days 0 hours 4 minutes 52 seconds 150 msec
