                         Program Version 4.2.0 -  RELEASE  -
|  1> #
|  2> # 61_Sc wb97x-v/aug-cc-pvtz
|  3> #
|  4> ! wb97x-v aug-cc-pvtz def2/jk grid4 nofinalgrid
|  5>
|  6> *xyz 0 2
|  7> Sc 0.0 0.0 0.0
|  8> *
|  9>
| 10> %pal
| 11> nprocs 24
| 12> end
| 13>
| 14>
| 15>                          ****END OF INPUT****

CARTESIAN COORDINATES (ANGSTROEM)
---------------------------------
  Sc     0.000000    0.000000    0.000000

 Total Charge           Charge          ....    0
 Multiplicity           Mult            ....    2
 Number of Electrons    NEL             ....   21
 Basis Dimension        Dim             ....   93

ORBITAL ENERGIES
----------------
                 SPIN UP ORBITALS
  NO   OCC          E(Eh)            E(eV)
   0   1.0000    -161.672612     -4399.3354
   1   1.0000     -17.716130      -482.0804
   2   1.0000     -14.639118      -398.3506
   3   1.0000     -14.629184      -398.0803
   4   1.0000     -14.629183      -398.0803
   5   1.0000      -2.252708       -61.2993
   6   1.0000      -1.440235       -39.1908
   7   1.0000      -1.435629       -39.0655
   8   1.0000      -1.435629       -39.0655
   9   1.0000      -0.286657        -7.8003
  10   1.0000      -0.236846        -6.4449
  11   0.0000       0.004938         0.1344
  12   0.0000       0.006330         0.1723
  13   0.0000       0.006330         0.1723
  14   0.0000       0.021936         0.5969
  15   0.0000       0.022950         0.6245

                 SPIN DOWN ORBITALS
  NO   OCC          E(Eh)            E(eV)
   0   1.0000    -161.672603     -4399.3352
   1   1.0000     -17.708161      -481.8636
   2   1.0000     -14.637353      -398.3026
   3   1.0000     -14.619992      -397.8302
   4   1.0000     -14.619991      -397.8302
   5   1.0000      -2.223989       -60.5178
   6   1.0000      -1.432474       -38.9796
   7   1.0000      -1.389939       -37.8222
   8   1.0000      -1.389938       -37.8221
   9   1.0000      -0.230427        -6.2702
  10   0.0000       0.004307         0.1172
  11   0.0000       0.008323         0.2265
  12   0.0000       0.008323         0.2265
  13   0.0000       0.022794         0.6203
  14   0.0000       0.031096         0.8462

MULLIKEN ATOMIC CHARGES AND SPIN POPULATIONS
--------------------------------------------
   0 Sc:   -0.000000    1.000000
Sum of atomic charges         :   -0.0000000

LOEWDIN ATOMIC CHARGES AND SPIN POPULATIONS
-------------------------------------------
   0 Sc:   -0.000000    1.000000

FINAL SINGLE POINT ENERGY      -760.511493791584

DIPOLE MOMENT
-------------
                                X             Y             Z
Electronic contribution:      0.00000       0.00000       0.00000
Nuclear contribution   :      0.00000       0.00000       0.00000
                        -----------------------------------------
Total Dipole Moment    :      0.00000       0.00000       0.00000
                        -----------------------------------------
Magnitude (a.u.)       :      0.00000
Magnitude (Debye)      :      0.00000

Rotational constants in cm-1:     0.000000     0.000000     0.000000
Rotational constants in MHz :     0.000000     0.000000     0.000000

                             ****ORCA TERMINATED NORMALLY****
TOTAL RUN TIME: 0 days 0 hours 3 minutes 1 seconds 34 msec
