                         Program Version 4.2.0 -  RELEASE  -
|  1> #
|  2> # 62_Ti wb97x-v/aug-cc-pvtz
|  3> #
|  4> ! wb97x-v aug-cc-pvtz def2/jk grid4 nofinalgrid
|  5>
|  6> *xyz 0 3
|  7> Ti 0.0 0.0 0.0
|  8> *
|  9>
| 10> %pal
| 11> nprocs 24
| 12> end
| 13>
| 14>
| 15>                          ****END OF INPUT****

CARTESIAN COORDINATES (ANGSTROEM)
---------------------------------
  Ti     0.000000    0.000000    0.000000

 Total Charge           Charge          ....    0
 Multiplicity           Mult            ....    3
 Number of Electrons    NEL             ....   22
 Basis Dimension        Dim             ....   93

ORBITAL ENERGIES
----------------
                 SPIN UP ORBITALS
  NO   OCC          E(Eh)            E(eV)
   0   1.0000    -178.825752     -4866.0961
   1   1.0000     -19.984729      -543.8121
   2   1.0000     -16.694450      -454.2791
   3   1.0000     -16.694449      -454.2791
   4   1.0000     -16.682772      -453.9613
   5   1.0000      -2.541501       -69.1578
   6   1.0000      -1.650466       -44.9115
   7   1.0000      -1.650464       -44.9114
   8   1.0000      -1.645254       -44.7696
   9   1.0000      -0.344608        -9.3773
  10   1.0000      -0.344608        -9.3773
  11   1.0000      -0.252704        -6.8764
  12   0.0000      -0.004939        -0.1344
  13   0.0000      -0.004939        -0.1344
  14   0.0000       0.006582         0.1791
  15   0.0000       0.006584         0.1792
  16   0.0000       0.008367         0.2277

                 SPIN DOWN ORBITALS
  NO   OCC          E(Eh)            E(eV)
   0   1.0000    -178.825602     -4866.0920
   1   1.0000     -19.963953      -543.2468
   2   1.0000     -16.680274      -453.8933
   3   1.0000     -16.680273      -453.8933
   4   1.0000     -16.659130      -453.3180
   5   1.0000      -2.475452       -67.3605
   6   1.0000      -1.590633       -43.2833
   7   1.0000      -1.590631       -43.2833
   8   1.0000      -1.542319       -41.9686
   9   1.0000      -0.239568        -6.5190
  10   0.0000       0.008111         0.2207
  11   0.0000       0.008113         0.2208
  12   0.0000       0.011273         0.3068
  13   0.0000       0.021483         0.5846
  14   0.0000       0.021483         0.5846

MULLIKEN ATOMIC CHARGES AND SPIN POPULATIONS
--------------------------------------------
   0 Ti:   -0.000000    2.000000
Sum of atomic charges         :   -0.0000000

LOEWDIN ATOMIC CHARGES AND SPIN POPULATIONS
-------------------------------------------
   0 Ti:   -0.000000    2.000000

FINAL SINGLE POINT ENERGY      -849.228845124348

DIPOLE MOMENT
-------------
                                X             Y             Z
Electronic contribution:     -0.00000       0.00000      -0.00000
Nuclear contribution   :      0.00000       0.00000       0.00000
                        -----------------------------------------
Total Dipole Moment    :     -0.00000       0.00000      -0.00000
                        -----------------------------------------
Magnitude (a.u.)       :      0.00000
Magnitude (Debye)      :      0.00000

Rotational constants in cm-1:     0.000000     0.000000     0.000000
Rotational constants in MHz :     0.000000     0.000000     0.000000

                             ****ORCA TERMINATED NORMALLY****
TOTAL RUN TIME: 0 days 0 hours 8 minutes 11 seconds 545 msec
