                         Program Version 4.2.0 -  RELEASE  -
|  1> #
|  2> # 63_V wb97x-v/aug-cc-pvtz
|  3> #
|  4> ! wb97x-v aug-cc-pvtz def2/jk grid4 nofinalgrid
|  5>
|  6> *xyz 0 4
|  7> V 0.0 0.0 0.0
|  8> *
|  9>
| 10> %pal
| 11> nprocs 24
| 12> end
| 13>
| 14>
| 15>                          ****END OF INPUT****

CARTESIAN COORDINATES (ANGSTROEM)
---------------------------------
  V      0.000000    0.000000    0.000000

 Total Charge           Charge          ....    0
 Multiplicity           Mult            ....    4
 Number of Electrons    NEL             ....   23
 Basis Dimension        Dim             ....   93

ORBITAL ENERGIES
----------------
                 SPIN UP ORBITALS
  NO   OCC          E(Eh)            E(eV)
   0   1.0000    -196.806443     -5355.3756
   1   1.0000     -22.329995      -607.6300
   2   1.0000     -18.825258      -512.2613
   3   1.0000     -18.825140      -512.2581
   4   1.0000     -18.821118      -512.1486
   5   1.0000      -2.806928       -76.3804
   6   1.0000      -1.838621       -50.0314
   7   1.0000      -1.836721       -49.9797
   8   1.0000      -1.835762       -49.9536
   9   1.0000      -0.377236       -10.2651
  10   1.0000      -0.375343       -10.2136
  11   1.0000      -0.373933       -10.1752
  12   1.0000      -0.266663        -7.2563
  13   0.0000      -0.013768        -0.3746
  14   0.0000      -0.000715        -0.0195
  15   0.0000       0.010213         0.2779
  16   0.0000       0.010559         0.2873
  17   0.0000       0.012093         0.3291

                 SPIN DOWN ORBITALS
  NO   OCC          E(Eh)            E(eV)
   0   1.0000    -196.806253     -5355.3704
   1   1.0000     -22.291964      -606.5952
   2   1.0000     -18.794273      -511.4182
   3   1.0000     -18.793563      -511.3988
   4   1.0000     -18.789438      -511.2866
   5   1.0000      -2.694927       -73.3327
   6   1.0000      -1.716580       -46.7105
   7   1.0000      -1.714593       -46.6565
   8   1.0000      -1.707568       -46.4653
   9   1.0000      -0.241375        -6.5681
  10   0.0000       0.010381         0.2825
  11   0.0000       0.012620         0.3434
  12   0.0000       0.013314         0.3623
  13   0.0000       0.025136         0.6840
  14   0.0000       0.039621         1.0781

MULLIKEN ATOMIC CHARGES AND SPIN POPULATIONS
--------------------------------------------
   0 V :   -0.000000    3.000000
Sum of atomic charges         :   -0.0000000

LOEWDIN ATOMIC CHARGES AND SPIN POPULATIONS
-------------------------------------------
   0 V :   -0.000000    3.000000

FINAL SINGLE POINT ENERGY      -943.770206199889

DIPOLE MOMENT
-------------
                                X             Y             Z
Electronic contribution:      0.00000       0.00000       0.00000
Nuclear contribution   :      0.00000       0.00000       0.00000
                        -----------------------------------------
Total Dipole Moment    :      0.00000       0.00000       0.00000
                        -----------------------------------------
Magnitude (a.u.)       :      0.00000
Magnitude (Debye)      :      0.00000

Rotational constants in cm-1:     0.000000     0.000000     0.000000
Rotational constants in MHz :     0.000000     0.000000     0.000000

                             ****ORCA TERMINATED NORMALLY****
TOTAL RUN TIME: 0 days 0 hours 12 minutes 43 seconds 66 msec
