                         Program Version 4.2.0 -  RELEASE  -
|  1> #
|  2> # 65_Mn wb97x-v/aug-cc-pvtz
|  3> #
|  4> ! wb97x-v aug-cc-pvtz def2/jk grid4 nofinalgrid
|  5>
|  6> *xyz 0 6
|  7> Mn 0.0 0.0 0.0
|  8> *
|  9>
| 10> %pal
| 11> nprocs 24
| 12> end
| 13>
| 14>
| 15>                          ****END OF INPUT****

CARTESIAN COORDINATES (ANGSTROEM)
---------------------------------
  Mn     0.000000    0.000000    0.000000

 Total Charge           Charge          ....    0
 Multiplicity           Mult            ....    6
 Number of Electrons    NEL             ....   25
 Basis Dimension        Dim             ....   93

ORBITAL ENERGIES
----------------
                 SPIN UP ORBITALS
  NO   OCC          E(Eh)            E(eV)
   0   1.0000    -235.266779     -6401.9345
   1   1.0000     -27.262063      -741.8384
   2   1.0000     -23.342815      -635.1903
   3   1.0000     -23.328140      -634.7909
   4   1.0000     -23.315216      -634.4393
   5   1.0000      -3.241665       -88.2102
   6   1.0000      -2.140849       -58.2555
   7   1.0000      -2.109010       -57.3891
   8   1.0000      -2.080896       -56.6241
   9   1.0000      -0.337362        -9.1801
  10   1.0000      -0.335428        -9.1275
  11   1.0000      -0.323817        -8.8115
  12   1.0000      -0.310811        -8.4576
  13   1.0000      -0.281901        -7.6709
  14   1.0000      -0.245747        -6.6871
  15   0.0000       0.015063         0.4099
  16   0.0000       0.017014         0.4630
  17   0.0000       0.018518         0.5039
  18   0.0000       0.027181         0.7396
  19   0.0000       0.062451         1.6994

                 SPIN DOWN ORBITALS
  NO   OCC          E(Eh)            E(eV)
   0   1.0000    -235.265139     -6401.8899
   1   1.0000     -27.200557      -740.1648
   2   1.0000     -23.285640      -633.6345
   3   1.0000     -23.278718      -633.4461
   4   1.0000     -23.272410      -633.2745
   5   1.0000      -3.081188       -83.8434
   6   1.0000      -1.939646       -52.7805
   7   1.0000      -1.936124       -52.6846
   8   1.0000      -1.931328       -52.5541
   9   1.0000      -0.199874        -5.4389
  10   0.0000      -0.002491        -0.0678
  11   0.0000       0.032112         0.8738
  12   0.0000       0.032189         0.8759
  13   0.0000       0.034090         0.9276
  14   0.0000       0.043470         1.1829

MULLIKEN ATOMIC CHARGES AND SPIN POPULATIONS
--------------------------------------------
   0 Mn:   -0.000000    5.000000
Sum of atomic charges         :   -0.0000000

LOEWDIN ATOMIC CHARGES AND SPIN POPULATIONS
-------------------------------------------
   0 Mn:   -0.000000    5.000000

FINAL SINGLE POINT ENERGY     -1150.790484300065

DIPOLE MOMENT
-------------
                                X             Y             Z
Electronic contribution:      0.00000      -0.00000       0.00000
Nuclear contribution   :      0.00000       0.00000       0.00000
                        -----------------------------------------
Total Dipole Moment    :      0.00000      -0.00000       0.00000
                        -----------------------------------------
Magnitude (a.u.)       :      0.00000
Magnitude (Debye)      :      0.00000

Rotational constants in cm-1:     0.000000     0.000000     0.000000
Rotational constants in MHz :     0.000000     0.000000     0.000000

                             ****ORCA TERMINATED NORMALLY****
TOTAL RUN TIME: 0 days 0 hours 6 minutes 33 seconds 48 msec
