                         Program Version 4.2.0 -  RELEASE  -
|  1> #
|  2> # 67_Co wb97x-v/aug-cc-pvtz
|  3> #
|  4> ! wb97x-v aug-cc-pvtz def2/jk grid4 nofinalgrid
|  5>
|  6> *xyz 0 4
|  7> Co 0.0 0.0 0.0
|  8> *
|  9>
| 10> %pal
| 11> nprocs 24
| 12> end
| 13>
| 14>
| 15>                          ****END OF INPUT****

CARTESIAN COORDINATES (ANGSTROEM)
---------------------------------
  Co     0.000000    0.000000    0.000000

 Total Charge           Charge          ....    0
 Multiplicity           Mult            ....    4
 Number of Electrons    NEL             ....   27
 Basis Dimension        Dim             ....   93

ORBITAL ENERGIES
----------------
                 SPIN UP ORBITALS
  NO   OCC          E(Eh)            E(eV)
   0   1.0000    -277.322974     -7546.3418
   1   1.0000     -32.805759      -892.6901
   2   1.0000     -28.439820      -773.8868
   3   1.0000     -28.439708      -773.8838
   4   1.0000     -28.439623      -773.8815
   5   1.0000      -3.799486      -103.3893
   6   1.0000      -2.486264       -67.6547
   7   1.0000      -2.486101       -67.6503
   8   1.0000      -2.485992       -67.6473
   9   1.0000      -0.370781       -10.0895
  10   1.0000      -0.370769       -10.0891
  11   1.0000      -0.336929        -9.1683
  12   1.0000      -0.336912        -9.1679
  13   1.0000      -0.336882        -9.1670
  14   1.0000      -0.255990        -6.9658
  15   0.0000       0.020324         0.5531
  16   0.0000       0.020414         0.5555
  17   0.0000       0.020497         0.5578
  18   0.0000       0.030099         0.8190
  19   0.0000       0.075896         2.0652

                 SPIN DOWN ORBITALS
  NO   OCC          E(Eh)            E(eV)
   0   1.0000    -277.321379     -7546.2984
   1   1.0000     -32.766028      -891.6089
   2   1.0000     -28.408051      -773.0224
   3   1.0000     -28.407940      -773.0193
   4   1.0000     -28.407840      -773.0166
   5   1.0000      -3.707130      -100.8761
   6   1.0000      -2.386818       -64.9486
   7   1.0000      -2.386690       -64.9451
   8   1.0000      -2.386582       -64.9422
   9   1.0000      -0.291616        -7.9353
  10   1.0000      -0.291574        -7.9341
  11   1.0000      -0.291545        -7.9333
  12   0.0000      -0.022715        -0.6181
  13   0.0000       0.034875         0.9490
  14   0.0000       0.035038         0.9534
  15   0.0000       0.035222         0.9584
  16   0.0000       0.043747         1.1904

MULLIKEN ATOMIC CHARGES AND SPIN POPULATIONS
--------------------------------------------
   0 Co:   -0.000000    3.000000
Sum of atomic charges         :   -0.0000000

LOEWDIN ATOMIC CHARGES AND SPIN POPULATIONS
-------------------------------------------
   0 Co:   -0.000000    3.000000

FINAL SINGLE POINT ENERGY     -1382.589462674671

DIPOLE MOMENT
-------------
                                X             Y             Z
Electronic contribution:     -0.00000       0.00000      -0.00000
Nuclear contribution   :      0.00000       0.00000       0.00000
                        -----------------------------------------
Total Dipole Moment    :     -0.00000       0.00000      -0.00000
                        -----------------------------------------
Magnitude (a.u.)       :      0.00000
Magnitude (Debye)      :      0.00000

Rotational constants in cm-1:     0.000000     0.000000     0.000000
Rotational constants in MHz :     0.000000     0.000000     0.000000

                             ****ORCA TERMINATED NORMALLY****
TOTAL RUN TIME: 0 days 0 hours 5 minutes 41 seconds 626 msec
