                         Program Version 4.2.0 -  RELEASE  -
|  1> #
|  2> # 68_Ni wb97x-v/aug-cc-pvtz
|  3> #
|  4> ! wb97x-v aug-cc-pvtz def2/jk grid4 nofinalgrid
|  5>
|  6> *xyz 0 3
|  7> Ni 0.0 0.0 0.0
|  8> *
|  9>
| 10> %pal
| 11> nprocs 24
| 12> end
| 13>
| 14>
| 15>                          ****END OF INPUT****

CARTESIAN COORDINATES (ANGSTROEM)
---------------------------------
  Ni     0.000000    0.000000    0.000000

 Total Charge           Charge          ....    0
 Multiplicity           Mult            ....    3
 Number of Electrons    NEL             ....   28
 Basis Dimension        Dim             ....   93

ORBITAL ENERGIES
----------------
                 SPIN UP ORBITALS
  NO   OCC          E(Eh)            E(eV)
   0   1.0000    -299.646111     -8153.7852
   1   1.0000     -35.752375      -972.8716
   2   1.0000     -31.179497      -848.4372
   3   1.0000     -31.179329      -848.4327
   4   1.0000     -31.145124      -847.5019
   5   1.0000      -4.089100      -111.2701
   6   1.0000      -2.702864       -73.5487
   7   1.0000      -2.702535       -73.5397
   8   1.0000      -2.635913       -71.7268
   9   1.0000      -0.411190       -11.1891
  10   1.0000      -0.373606       -10.1663
  11   1.0000      -0.348087        -9.4719
  12   1.0000      -0.347958        -9.4684
  13   1.0000      -0.339457        -9.2371
  14   1.0000      -0.262093        -7.1319
  15   0.0000       0.020793         0.5658
  16   0.0000       0.020805         0.5661
  17   0.0000       0.022026         0.5994
  18   0.0000       0.031434         0.8554
  19   0.0000       0.076263         2.0752

                 SPIN DOWN ORBITALS
  NO   OCC          E(Eh)            E(eV)
   0   1.0000    -299.644681     -8153.7463
   1   1.0000     -35.729595      -972.2517
   2   1.0000     -31.155734      -847.7906
   3   1.0000     -31.155657      -847.7885
   4   1.0000     -31.138379      -847.3184
   5   1.0000      -4.038464      -109.8922
   6   1.0000      -2.630848       -71.5890
   7   1.0000      -2.630799       -71.5877
   8   1.0000      -2.618833       -71.2621
   9   1.0000      -0.352706        -9.5976
  10   1.0000      -0.319432        -8.6922
  11   1.0000      -0.319266        -8.6877
  12   1.0000      -0.305435        -8.3113
  13   0.0000      -0.030173        -0.8211
  14   0.0000       0.033616         0.9147
  15   0.0000       0.033620         0.9148
  16   0.0000       0.034832         0.9478
  17   0.0000       0.044403         1.2083

MULLIKEN ATOMIC CHARGES AND SPIN POPULATIONS
--------------------------------------------
   0 Ni:   -0.000000    2.000000
Sum of atomic charges         :   -0.0000000

LOEWDIN ATOMIC CHARGES AND SPIN POPULATIONS
-------------------------------------------
   0 Ni:   -0.000000    2.000000

FINAL SINGLE POINT ENERGY     -1508.147741911092

DIPOLE MOMENT
-------------
                                X             Y             Z
Electronic contribution:      0.00000      -0.00000       0.00000
Nuclear contribution   :      0.00000       0.00000       0.00000
                        -----------------------------------------
Total Dipole Moment    :      0.00000      -0.00000       0.00000
                        -----------------------------------------
Magnitude (a.u.)       :      0.00000
Magnitude (Debye)      :      0.00000

Rotational constants in cm-1:     0.000000     0.000000     0.000000
Rotational constants in MHz :     0.000000     0.000000     0.000000

                             ****ORCA TERMINATED NORMALLY****
TOTAL RUN TIME: 0 days 0 hours 4 minutes 1 seconds 613 msec
