                         Program Version 4.2.0 -  RELEASE  -
|  1> #
|  2> # 69_Cu wb97x-v/aug-cc-pvtz
|  3> #
|  4> ! wb97x-v aug-cc-pvtz def2/jk grid4 nofinalgrid
|  5>
|  6> *xyz 0 2
|  7> Cu 0.0 0.0 0.0
|  8> *
|  9>
| 10> %pal
| 11> nprocs 24
| 12> end
| 13>
| 14>
| 15>                          ****END OF INPUT****

CARTESIAN COORDINATES (ANGSTROEM)
---------------------------------
  Cu     0.000000    0.000000    0.000000

 Total Charge           Charge          ....    0
 Multiplicity           Mult            ....    2
 Number of Electrons    NEL             ....   29
 Basis Dimension        Dim             ....   93

ORBITAL ENERGIES
----------------
                 SPIN UP ORBITALS
  NO   OCC          E(Eh)            E(eV)
   0   1.0000    -322.820962     -8784.4050
   1   1.0000     -38.800102     -1055.8044
   2   1.0000     -33.995996      -925.0781
   3   1.0000     -33.995996      -925.0781
   4   1.0000     -33.995991      -925.0779
   5   1.0000      -4.371026      -118.9417
   6   1.0000      -2.865532       -77.9751
   7   1.0000      -2.865532       -77.9751
   8   1.0000      -2.865526       -77.9749
   9   1.0000      -0.364309        -9.9133
  10   1.0000      -0.364305        -9.9133
  11   1.0000      -0.364305        -9.9133
  12   1.0000      -0.364304        -9.9132
  13   1.0000      -0.364302        -9.9132
  14   1.0000      -0.265672        -7.2293
  15   0.0000       0.022476         0.6116
  16   0.0000       0.022477         0.6116
  17   0.0000       0.022477         0.6116
  18   0.0000       0.032806         0.8927
  19   0.0000       0.081555         2.2192

                 SPIN DOWN ORBITALS
  NO   OCC          E(Eh)            E(eV)
   0   1.0000    -322.819762     -8784.3723
   1   1.0000     -38.799788     -1055.7959
   2   1.0000     -33.995904      -925.0756
   3   1.0000     -33.995904      -925.0756
   4   1.0000     -33.995899      -925.0754
   5   1.0000      -4.369899      -118.9110
   6   1.0000      -2.865240       -77.9671
   7   1.0000      -2.865240       -77.9671
   8   1.0000      -2.865233       -77.9670
   9   1.0000      -0.361430        -9.8350
  10   1.0000      -0.361428        -9.8349
  11   1.0000      -0.361428        -9.8349
  12   1.0000      -0.361427        -9.8349
  13   1.0000      -0.361426        -9.8349
  14   0.0000      -0.031545        -0.8584
  15   0.0000       0.036399         0.9905
  16   0.0000       0.036400         0.9905
  17   0.0000       0.036402         0.9906
  18   0.0000       0.046030         1.2525

MULLIKEN ATOMIC CHARGES AND SPIN POPULATIONS
--------------------------------------------
   0 Cu:    0.000000    1.000000
Sum of atomic charges         :    0.0000000

LOEWDIN ATOMIC CHARGES AND SPIN POPULATIONS
-------------------------------------------
   0 Cu:    0.000000    1.000000

FINAL SINGLE POINT ENERGY     -1640.364529128695

DIPOLE MOMENT
-------------
                                X             Y             Z
Electronic contribution:      0.00000       0.00000       0.00000
Nuclear contribution   :      0.00000       0.00000       0.00000
                        -----------------------------------------
Total Dipole Moment    :      0.00000       0.00000       0.00000
                        -----------------------------------------
Magnitude (a.u.)       :      0.00000
Magnitude (Debye)      :      0.00000

Rotational constants in cm-1:     0.000000     0.000000     0.000000
Rotational constants in MHz :     0.000000     0.000000     0.000000

                             ****ORCA TERMINATED NORMALLY****
TOTAL RUN TIME: 0 days 0 hours 2 minutes 23 seconds 196 msec
