                         Program Version 4.2.0 -  RELEASE  -
|  1> #
|  2> # 70_Zn wb97x-v/aug-cc-pvtz
|  3> #
|  4> ! wb97x-v aug-cc-pvtz def2/jk grid4 nofinalgrid
|  5>
|  6> *xyz 0 1
|  7> Zn 0.0 0.0 0.0
|  8> *
|  9>
| 10> %pal
| 11> nprocs 24
| 12> end
| 13>
| 14>
| 15>                          ****END OF INPUT****

CARTESIAN COORDINATES (ANGSTROEM)
---------------------------------
  Zn     0.000000    0.000000    0.000000

 Total Charge           Charge          ....    0
 Multiplicity           Mult            ....    1
 Number of Electrons    NEL             ....   30
 Basis Dimension        Dim             ....   93

ORBITAL ENERGIES
----------------

  NO   OCC          E(Eh)            E(eV)
   0   2.0000    -347.079932     -9444.5251
   1   2.0000     -42.222507     -1148.9328
   2   2.0000     -37.191741     -1012.0387
   3   2.0000     -37.191741     -1012.0387
   4   2.0000     -37.191741     -1012.0387
   5   2.0000      -4.911949      -133.6609
   6   2.0000      -3.302372       -89.8621
   7   2.0000      -3.302372       -89.8621
   8   2.0000      -3.302372       -89.8621
   9   2.0000      -0.583942       -15.8899
  10   2.0000      -0.583942       -15.8899
  11   2.0000      -0.583942       -15.8899
  12   2.0000      -0.583942       -15.8899
  13   2.0000      -0.583942       -15.8899
  14   2.0000      -0.319664        -8.6985
  15   0.0000       0.021223         0.5775
  16   0.0000       0.021223         0.5775
  17   0.0000       0.021223         0.5775
  18   0.0000       0.033220         0.9040
  19   0.0000       0.074110         2.0166

MULLIKEN ATOMIC CHARGES
-----------------------
   0 Zn:    0.000000
Sum of atomic charges:    0.0000000

LOEWDIN ATOMIC CHARGES
----------------------
   0 Zn:    0.000000

FINAL SINGLE POINT ENERGY     -1779.261955987133

DIPOLE MOMENT
-------------
                                X             Y             Z
Electronic contribution:     -0.00000      -0.00000      -0.00000
Nuclear contribution   :      0.00000       0.00000       0.00000
                        -----------------------------------------
Total Dipole Moment    :     -0.00000      -0.00000      -0.00000
                        -----------------------------------------
Magnitude (a.u.)       :      0.00000
Magnitude (Debye)      :      0.00000

Rotational constants in cm-1:     0.000000     0.000000     0.000000
Rotational constants in MHz :     0.000000     0.000000     0.000000

                             ****ORCA TERMINATED NORMALLY****
TOTAL RUN TIME: 0 days 0 hours 2 minutes 3 seconds 110 msec
