                         Program Version 4.2.0 -  RELEASE  -
|  1> #
|  2> # 72_F wb97x-v/aug-cc-pvtz
|  3> #
|  4> ! wb97x-v aug-cc-pvtz def2/jk grid4 nofinalgrid
|  5>
|  6> *xyz 0 2
|  7> F 0.0 0.0 0.0
|  8> *
|  9>
| 10> %pal
| 11> nprocs 24
| 12> end
| 13>
| 14>
| 15>                          ****END OF INPUT****

CARTESIAN COORDINATES (ANGSTROEM)
---------------------------------
  F      0.000000    0.000000    0.000000

 Total Charge           Charge          ....    0
 Multiplicity           Mult            ....    2
 Number of Electrons    NEL             ....    9
 Basis Dimension        Dim             ....   46

ORBITAL ENERGIES
----------------
                 SPIN UP ORBITALS
  NO   OCC          E(Eh)            E(eV)
   0   1.0000     -24.871383      -676.7847
   1   1.0000      -1.364705       -37.1355
   2   1.0000      -0.679040       -18.4776
   3   1.0000      -0.595363       -16.2006
   4   1.0000      -0.595363       -16.2006
   5   0.0000       0.171621         4.6700
   6   0.0000       0.178417         4.8550
   7   0.0000       0.187778         5.1097
   8   0.0000       0.187778         5.1097
   9   0.0000       0.793348        21.5881

                 SPIN DOWN ORBITALS
  NO   OCC          E(Eh)            E(eV)
   0   1.0000     -24.845856      -676.0901
   1   1.0000      -1.275382       -34.7049
   2   1.0000      -0.562871       -15.3165
   3   1.0000      -0.562871       -15.3165
   4   0.0000      -0.164513        -4.4766
   5   0.0000       0.177292         4.8244
   6   0.0000       0.189462         5.1555
   7   0.0000       0.189462         5.1555
   8   0.0000       0.195263         5.3134

MULLIKEN ATOMIC CHARGES AND SPIN POPULATIONS
--------------------------------------------
   0 F :   -0.000000    1.000000
Sum of atomic charges         :   -0.0000000

LOEWDIN ATOMIC CHARGES AND SPIN POPULATIONS
-------------------------------------------
   0 F :   -0.000000    1.000000

FINAL SINGLE POINT ENERGY       -99.729957676896

DIPOLE MOMENT
-------------
                                X             Y             Z
Electronic contribution:     -0.00000      -0.00000       0.00000
Nuclear contribution   :      0.00000       0.00000       0.00000
                        -----------------------------------------
Total Dipole Moment    :     -0.00000      -0.00000       0.00000
                        -----------------------------------------
Magnitude (a.u.)       :      0.00000
Magnitude (Debye)      :      0.00000

Rotational constants in cm-1:     0.000000     0.000000     0.000000
Rotational constants in MHz :     0.000000     0.000000     0.000000

                             ****ORCA TERMINATED NORMALLY****
TOTAL RUN TIME: 0 days 0 hours 0 minutes 2 seconds 919 msec
