                         Program Version 4.2.0 -  RELEASE  -
|  1> #
|  2> # 73_Cl wb97x-v/aug-cc-pvtz
|  3> #
|  4> ! wb97x-v aug-cc-pvtz def2/jk grid4 nofinalgrid
|  5>
|  6> *xyz 0 2
|  7> Cl 0.0 0.0 0.0
|  8> *
|  9>
| 10> %pal
| 11> nprocs 24
| 12> end
| 13>
| 14>
| 15>                          ****END OF INPUT****

CARTESIAN COORDINATES (ANGSTROEM)
---------------------------------
  Cl     0.000000    0.000000    0.000000

 Total Charge           Charge          ....    0
 Multiplicity           Mult            ....    2
 Number of Electrons    NEL             ....   17
 Basis Dimension        Dim             ....   50

ORBITAL ENERGIES
----------------
                 SPIN UP ORBITALS
  NO   OCC          E(Eh)            E(eV)
   0   1.0000    -101.604482     -2764.7985
   1   1.0000      -9.617069      -261.6938
   2   1.0000      -7.384073      -200.9308
   3   1.0000      -7.361390      -200.3136
   4   1.0000      -7.361390      -200.3136
   5   1.0000      -0.978151       -26.6168
   6   1.0000      -0.518054       -14.0970
   7   1.0000      -0.465486       -12.6665
   8   1.0000      -0.465486       -12.6665
   9   0.0000       0.102486         2.7888
  10   0.0000       0.107255         2.9186
  11   0.0000       0.109740         2.9862
  12   0.0000       0.109740         2.9862
  13   0.0000       0.285217         7.7612

                 SPIN DOWN ORBITALS
  NO   OCC          E(Eh)            E(eV)
   0   1.0000    -101.598498     -2764.6357
   1   1.0000      -9.611663      -261.5466
   2   1.0000      -7.364446      -200.3968
   3   1.0000      -7.357571      -200.2097
   4   1.0000      -7.357571      -200.2097
   5   1.0000      -0.920354       -25.0441
   6   1.0000      -0.449839       -12.2407
   7   1.0000      -0.449839       -12.2407
   8   0.0000      -0.150242        -4.0883
   9   0.0000       0.110691         3.0120
  10   0.0000       0.110691         3.0120
  11   0.0000       0.111152         3.0246
  12   0.0000       0.112015         3.0481

MULLIKEN ATOMIC CHARGES AND SPIN POPULATIONS
--------------------------------------------
   0 Cl:    0.000000    1.000000
Sum of atomic charges         :    0.0000000

LOEWDIN ATOMIC CHARGES AND SPIN POPULATIONS
-------------------------------------------
   0 Cl:   -0.000000    1.000000

FINAL SINGLE POINT ENERGY      -460.087652686011

DIPOLE MOMENT
-------------
                                X             Y             Z
Electronic contribution:      0.00000       0.00000       0.00000
Nuclear contribution   :      0.00000       0.00000       0.00000
                        -----------------------------------------
Total Dipole Moment    :      0.00000       0.00000       0.00000
                        -----------------------------------------
Magnitude (a.u.)       :      0.00000
Magnitude (Debye)      :      0.00000

Rotational constants in cm-1:     0.000000     0.000000     0.000000
Rotational constants in MHz :     0.000000     0.000000     0.000000

                             ****ORCA TERMINATED NORMALLY****
TOTAL RUN TIME: 0 days 0 hours 0 minutes 4 seconds 305 msec
