                         Program Version 4.2.0 -  RELEASE  -
|  1> #
|  2> # 74_Br wb97x-v/aug-cc-pvtz
|  3> #
|  4> ! wb97x-v aug-cc-pvtz def2/jk grid4 nofinalgrid
|  5>
|  6> *xyz 0 2
|  7> Br 0.0 0.0 0.0
|  8> *
|  9>
| 10> %pal
| 11> nprocs 24
| 12> end
| 13>
| 14>
| 15>                          ****END OF INPUT****

CARTESIAN COORDINATES (ANGSTROEM)
---------------------------------
  Br     0.000000    0.000000    0.000000

 Total Charge           Charge          ....    0
 Multiplicity           Mult            ....    2
 Number of Electrons    NEL             ....   35
 Basis Dimension        Dim             ....   59

ORBITAL ENERGIES
----------------
                 SPIN UP ORBITALS
  NO   OCC          E(Eh)            E(eV)
   0   1.0000    -482.702725    -13135.0089
   1   1.0000     -62.575701     -1702.7714
   2   1.0000     -56.384901     -1534.3111
   3   1.0000     -56.377373     -1534.1063
   4   1.0000     -56.377373     -1534.1063
   5   1.0000      -8.840258      -240.5557
   6   1.0000      -6.676520      -181.6773
   7   1.0000      -6.654962      -181.0907
   8   1.0000      -6.654962      -181.0907
   9   1.0000      -2.796398       -76.0939
  10   1.0000      -2.791093       -75.9495
  11   1.0000      -2.791093       -75.9495
  12   1.0000      -2.775198       -75.5170
  13   1.0000      -2.775198       -75.5170
  14   1.0000      -0.924668       -25.1615
  15   1.0000      -0.475948       -12.9512
  16   1.0000      -0.429423       -11.6852
  17   1.0000      -0.429423       -11.6852
  18   0.0000       0.077525         2.1096
  19   0.0000       0.085130         2.3165
  20   0.0000       0.091697         2.4952
  21   0.0000       0.091697         2.4952
  22   0.0000       0.225634         6.1398

                 SPIN DOWN ORBITALS
  NO   OCC          E(Eh)            E(eV)
   0   1.0000    -482.700408    -13134.9459
   1   1.0000     -62.574514     -1702.7391
   2   1.0000     -56.379633     -1534.1678
   3   1.0000     -56.376339     -1534.0782
   4   1.0000     -56.376339     -1534.0782
   5   1.0000      -8.836998      -240.4670
   6   1.0000      -6.667249      -181.4251
   7   1.0000      -6.653518      -181.0514
   8   1.0000      -6.653518      -181.0514
   9   1.0000      -2.789267       -75.8998
  10   1.0000      -2.785667       -75.8019
  11   1.0000      -2.785667       -75.8019
  12   1.0000      -2.774358       -75.4941
  13   1.0000      -2.774358       -75.4941
  14   1.0000      -0.874386       -23.7932
  15   1.0000      -0.416372       -11.3301
  16   1.0000      -0.416372       -11.3301
  17   0.0000      -0.140012        -3.8099
  18   0.0000       0.080718         2.1965
  19   0.0000       0.092518         2.5175
  20   0.0000       0.092518         2.5175
  21   0.0000       0.093218         2.5366

MULLIKEN ATOMIC CHARGES AND SPIN POPULATIONS
--------------------------------------------
   0 Br:   -0.000000    1.000000
Sum of atomic charges         :   -0.0000000

LOEWDIN ATOMIC CHARGES AND SPIN POPULATIONS
-------------------------------------------
   0 Br:    0.000000    1.000000

FINAL SINGLE POINT ENERGY     -2573.920675416235

DIPOLE MOMENT
-------------
                                X             Y             Z
Electronic contribution:     -0.00000       0.00000       0.00000
Nuclear contribution   :      0.00000       0.00000       0.00000
                        -----------------------------------------
Total Dipole Moment    :     -0.00000       0.00000       0.00000
                        -----------------------------------------
Magnitude (a.u.)       :      0.00000
Magnitude (Debye)      :      0.00000

Rotational constants in cm-1:     0.000000     0.000000     0.000000
Rotational constants in MHz :     0.000000     0.000000     0.000000

                             ****ORCA TERMINATED NORMALLY****
TOTAL RUN TIME: 0 days 0 hours 0 minutes 13 seconds 540 msec
