                         Program Version 4.2.0 -  RELEASE  -
|  1> #
|  2> # 76_S wb97x-v/aug-cc-pvtz
|  3> #
|  4> ! wb97x-v aug-cc-pvtz def2/jk grid4 nofinalgrid
|  5>
|  6> *xyz 0 3
|  7> S 0.0 0.0 0.0
|  8> *
|  9>
| 10> %pal
| 11> nprocs 24
| 12> end
| 13>
| 14>
| 15>                          ****END OF INPUT****

CARTESIAN COORDINATES (ANGSTROEM)
---------------------------------
  S      0.000000    0.000000    0.000000

 Total Charge           Charge          ....    0
 Multiplicity           Mult            ....    3
 Number of Electrons    NEL             ....   16
 Basis Dimension        Dim             ....   50

ORBITAL ENERGIES
----------------
                 SPIN UP ORBITALS
  NO   OCC          E(Eh)            E(eV)
   0   1.0000     -88.952177     -2420.5118
   1   1.0000      -8.104108      -220.5240
   2   1.0000      -6.066174      -165.0690
   3   1.0000      -6.066174      -165.0690
   4   1.0000      -6.047269      -164.5546
   5   1.0000      -0.855042       -23.2669
   6   1.0000      -0.439539       -11.9605
   7   1.0000      -0.439539       -11.9605
   8   1.0000      -0.393614       -10.7108
   9   0.0000       0.088381         2.4050
  10   0.0000       0.088381         2.4050
  11   0.0000       0.089484         2.4350
  12   0.0000       0.095619         2.6019
  13   0.0000       0.223054         6.0696

                 SPIN DOWN ORBITALS
  NO   OCC          E(Eh)            E(eV)
   0   1.0000     -88.942546     -2420.2497
   1   1.0000      -8.094940      -220.2745
   2   1.0000      -6.046635      -164.5373
   3   1.0000      -6.046635      -164.5373
   4   1.0000      -6.040892      -164.3810
   5   1.0000      -0.749319       -20.3900
   6   1.0000      -0.366375        -9.9696
   7   0.0000      -0.087521        -2.3816
   8   0.0000      -0.087521        -2.3816
   9   0.0000       0.097723         2.6592
  10   0.0000       0.098713         2.6861
  11   0.0000       0.102107         2.7785

MULLIKEN ATOMIC CHARGES AND SPIN POPULATIONS
--------------------------------------------
   0 S :   -0.000000    2.000000
Sum of atomic charges         :   -0.0000000

LOEWDIN ATOMIC CHARGES AND SPIN POPULATIONS
-------------------------------------------
   0 S :    0.000000    2.000000

FINAL SINGLE POINT ENERGY      -398.055165941138

DIPOLE MOMENT
-------------
                                X             Y             Z
Electronic contribution:      0.00000      -0.00000      -0.00000
Nuclear contribution   :      0.00000       0.00000       0.00000
                        -----------------------------------------
Total Dipole Moment    :      0.00000      -0.00000      -0.00000
                        -----------------------------------------
Magnitude (a.u.)       :      0.00000
Magnitude (Debye)      :      0.00000

Rotational constants in cm-1:     0.000000     0.000000     0.000000
Rotational constants in MHz :     0.000000     0.000000     0.000000

                             ****ORCA TERMINATED NORMALLY****
TOTAL RUN TIME: 0 days 0 hours 0 minutes 4 seconds 358 msec
