                         Program Version 4.2.0 -  RELEASE  -
|  1> #
|  2> # 04_ScBr wb97m-v/aug-cc-pvtz
|  3> #
|  4> ! wb97m-v aug-cc-pvtz def2/jk grid4 nofinalgrid
|  5>
|  6> *xyz 0 1
|  7>   Sc  0.00000000000000      0.00000000000000     -0.19342129509946
|  8>   Br  0.00000000000000      0.00000000000000      2.19342129509946
|  9> *
| 10>
| 11> %pal
| 12> nprocs 24
| 13> end
| 14>
| 15>
| 16>                          ****END OF INPUT****

CARTESIAN COORDINATES (ANGSTROEM)
---------------------------------
  Sc     0.000000    0.000000   -0.193421
  Br     0.000000    0.000000    2.193421

 Total Charge           Charge          ....    0
 Multiplicity           Mult            ....    1
 Number of Electrons    NEL             ....   56
 Basis Dimension        Dim             ....  152

ORBITAL ENERGIES
----------------

  NO   OCC          E(Eh)            E(eV)
   0   2.0000    -483.488555    -13156.3924
   1   2.0000    -162.184527     -4413.2653
   2   2.0000     -62.793675     -1708.7028
   3   2.0000     -56.478931     -1536.8699
   4   2.0000     -56.478743     -1536.8647
   5   2.0000     -56.478743     -1536.8647
   6   2.0000     -17.896245      -486.9816
   7   2.0000     -14.753244      -401.4562
   8   2.0000     -14.753244      -401.4562
   9   2.0000     -14.737691      -401.0330
  10   2.0000      -8.872383      -241.4298
  11   2.0000      -6.650943      -180.9814
  12   2.0000      -6.649866      -180.9521
  13   2.0000      -6.649866      -180.9521
  14   2.0000      -2.734167       -74.4005
  15   2.0000      -2.733636       -74.3860
  16   2.0000      -2.733636       -74.3860
  17   2.0000      -2.732705       -74.3607
  18   2.0000      -2.732657       -74.3594
  19   2.0000      -2.292831       -62.3911
  20   2.0000      -1.468506       -39.9601
  21   2.0000      -1.468506       -39.9601
  22   2.0000      -1.456754       -39.6403
  23   2.0000      -0.860967       -23.4281
  24   2.0000      -0.420724       -11.4485
  25   2.0000      -0.391653       -10.6574
  26   2.0000      -0.391653       -10.6574
  27   2.0000      -0.257163        -6.9978
  28   0.0000      -0.023832        -0.6485
  29   0.0000      -0.009068        -0.2468
  30   0.0000      -0.009068        -0.2468
  31   0.0000      -0.003319        -0.0903
  32   0.0000      -0.003318        -0.0903

MULLIKEN ATOMIC CHARGES
-----------------------
   0 Sc:    0.235668
   1 Br:   -0.235668
Sum of atomic charges:   -0.0000000

LOEWDIN ATOMIC CHARGES
----------------------
   0 Sc:   -0.276126
   1 Br:    0.276126

  Mayer bond orders larger than 0.100000
B(  0-Sc,  1-Br) :   1.4092

FINAL SINGLE POINT ENERGY     -3334.740985495802

DIPOLE MOMENT
-------------
                                X             Y             Z
Electronic contribution:     -0.00000      -0.00000       2.36333
Nuclear contribution   :      0.00000       0.00000      -3.76776
                        -----------------------------------------
Total Dipole Moment    :     -0.00000      -0.00000      -1.40444
                        -----------------------------------------
Magnitude (a.u.)       :      1.40444
Magnitude (Debye)      :      3.56979

Rotational constants in cm-1:     0.000000     0.102849     0.102849
Rotational constants in MHz :     0.000000  3083.332036  3083.332036

                             ****ORCA TERMINATED NORMALLY****
TOTAL RUN TIME: 0 days 0 hours 5 minutes 29 seconds 544 msec
