                         Program Version 4.2.0 -  RELEASE  -
|  1> #
|  2> # 07_TiH wb97m-v/aug-cc-pvtz
|  3> #
|  4> ! wb97m-v aug-cc-pvtz def2/jk grid4 nofinalgrid
|  5>
|  6> *xyz 0 4
|  7>   Ti  0.00000000000000      0.00000000000000      0.11662089429905
|  8>   H   0.00000000000000      0.00000000000000      1.88337910570095
|  9> *
| 10>
| 11> %pal
| 12> nprocs 24
| 13> end
| 14>
| 15>
| 16>                          ****END OF INPUT****

CARTESIAN COORDINATES (ANGSTROEM)
---------------------------------
  Ti     0.000000    0.000000    0.116621
  H      0.000000    0.000000    1.883379

 Total Charge           Charge          ....    0
 Multiplicity           Mult            ....    4
 Number of Electrons    NEL             ....   23
 Basis Dimension        Dim             ....  116

ORBITAL ENERGIES
----------------
                 SPIN UP ORBITALS
  NO   OCC          E(Eh)            E(eV)
   0   1.0000    -179.273894     -4878.2907
   1   1.0000     -20.075697      -546.2875
   2   1.0000     -16.717849      -454.9158
   3   1.0000     -16.717849      -454.9158
   4   1.0000     -16.704375      -454.5492
   5   1.0000      -2.510698       -68.3196
   6   1.0000      -1.612241       -43.8713
   7   1.0000      -1.612241       -43.8713
   8   1.0000      -1.602852       -43.6158
   9   1.0000      -0.369930       -10.0663
  10   1.0000      -0.303493        -8.2585
  11   1.0000      -0.303493        -8.2585
  12   1.0000      -0.240316        -6.5393
  13   0.0000      -0.002459        -0.0669
  14   0.0000      -0.002459        -0.0669
  15   0.0000       0.002558         0.0696
  16   0.0000       0.010906         0.2968
  17   0.0000       0.013042         0.3549

                 SPIN DOWN ORBITALS
  NO   OCC          E(Eh)            E(eV)
   0   1.0000    -179.272767     -4878.2600
   1   1.0000     -20.050464      -545.6009
   2   1.0000     -16.701193      -454.4626
   3   1.0000     -16.701193      -454.4626
   4   1.0000     -16.675378      -453.7601
   5   1.0000      -2.438802       -66.3632
   6   1.0000      -1.547290       -42.1039
   7   1.0000      -1.547290       -42.1039
   8   1.0000      -1.487210       -40.4690
   9   1.0000      -0.340503        -9.2655
  10   0.0000      -0.116742        -3.1767
  11   0.0000      -0.080103        -2.1797
  12   0.0000      -0.080102        -2.1797
  13   0.0000      -0.047731        -1.2988
  14   0.0000      -0.023865        -0.6494

MULLIKEN ATOMIC CHARGES AND SPIN POPULATIONS
--------------------------------------------
   0 Ti:    0.196823    3.032913
   1 H :   -0.196823   -0.032913
Sum of atomic charges         :   -0.0000000

LOEWDIN ATOMIC CHARGES AND SPIN POPULATIONS
-------------------------------------------
   0 Ti:    0.723087    2.749134
   1 H :   -0.723087    0.250866

  Mayer bond orders larger than 0.100000
B(  0-Ti,  1-H ) :   0.9347

FINAL SINGLE POINT ENERGY      -849.873398077722

DIPOLE MOMENT
-------------
                                X             Y             Z
Electronic contribution:     -0.00000      -0.00000      -2.51052
Nuclear contribution   :      0.00000       0.00000       1.75604
                        -----------------------------------------
Total Dipole Moment    :     -0.00000      -0.00000      -0.75448
                        -----------------------------------------
Magnitude (a.u.)       :      0.75448
Magnitude (Debye)      :      1.91772

Rotational constants in cm-1:     0.000000     5.470494     5.470494
Rotational constants in MHz :     0.000000 164001.275229 164001.275229

                             ****ORCA TERMINATED NORMALLY****
TOTAL RUN TIME: 0 days 0 hours 3 minutes 51 seconds 291 msec
