                         Program Version 4.2.0 -  RELEASE  -
|  1> #
|  2> # 09_TiCl wb97m-v/aug-cc-pvtz
|  3> #
|  4> ! wb97m-v aug-cc-pvtz def2/jk grid4 nofinalgrid
|  5>
|  6> *xyz 0 4
|  7>   Ti  0.00000000000000      0.00000000000000     -0.11680209456005
|  8>   Cl  0.00000000000000      0.00000000000000      2.11680209456005
|  9> *
| 10>
| 11> %pal
| 12> nprocs 24
| 13> end
| 14>
| 15>
| 16>                          ****END OF INPUT****

CARTESIAN COORDINATES (ANGSTROEM)
---------------------------------
  Ti     0.000000    0.000000   -0.116802
  Cl     0.000000    0.000000    2.116802

 Total Charge           Charge          ....    0
 Multiplicity           Mult            ....    4
 Number of Electrons    NEL             ....   39
 Basis Dimension        Dim             ....  143

ORBITAL ENERGIES
----------------
                 SPIN UP ORBITALS
  NO   OCC          E(Eh)            E(eV)
   0   1.0000    -179.253219     -4877.7281
   1   1.0000    -101.844576     -2771.3318
   2   1.0000     -20.049769      -545.5820
   3   1.0000     -16.694323      -454.2756
   4   1.0000     -16.684620      -454.0116
   5   1.0000     -16.684595      -454.0109
   6   1.0000      -9.603341      -261.3202
   7   1.0000      -7.303296      -198.7328
   8   1.0000      -7.302260      -198.7046
   9   1.0000      -7.302256      -198.7045
  10   1.0000      -2.488679       -67.7204
  11   1.0000      -1.598849       -43.5069
  12   1.0000      -1.585318       -43.1387
  13   1.0000      -1.585307       -43.1384
  14   1.0000      -0.885712       -24.1015
  15   1.0000      -0.430614       -11.7176
  16   1.0000      -0.399699       -10.8764
  17   1.0000      -0.399687       -10.8760
  18   1.0000      -0.272678        -7.4199
  19   1.0000      -0.272678        -7.4199
  20   1.0000      -0.260614        -7.0917
  21   0.0000      -0.019773        -0.5381
  22   0.0000      -0.003638        -0.0990
  23   0.0000      -0.003623        -0.0986
  24   0.0000       0.014679         0.3994
  25   0.0000       0.018176         0.4946

                 SPIN DOWN ORBITALS
  NO   OCC          E(Eh)            E(eV)
   0   1.0000    -179.252301     -4877.7031
   1   1.0000    -101.844702     -2771.3352
   2   1.0000     -20.023756      -544.8741
   3   1.0000     -16.683958      -453.9936
   4   1.0000     -16.658009      -453.2875
   5   1.0000     -16.657964      -453.2862
   6   1.0000      -9.603451      -261.3232
   7   1.0000      -7.303574      -198.7403
   8   1.0000      -7.302408      -198.7086
   9   1.0000      -7.302407      -198.7086
  10   1.0000      -2.413930       -65.6864
  11   1.0000      -1.549968       -42.1768
  12   1.0000      -1.482088       -40.3297
  13   1.0000      -1.481995       -40.3271
  14   1.0000      -0.885171       -24.0867
  15   1.0000      -0.425691       -11.5836
  16   1.0000      -0.398926       -10.8553
  17   1.0000      -0.398911       -10.8549
  18   0.0000      -0.217394        -5.9156
  19   0.0000      -0.178641        -4.8611
  20   0.0000      -0.177754        -4.8369
  21   0.0000      -0.106874        -2.9082
  22   0.0000      -0.098204        -2.6723

MULLIKEN ATOMIC CHARGES AND SPIN POPULATIONS
--------------------------------------------
   0 Ti:    0.346653    2.955800
   1 Cl:   -0.346653    0.044200
Sum of atomic charges         :   -0.0000000

LOEWDIN ATOMIC CHARGES AND SPIN POPULATIONS
-------------------------------------------
   0 Ti:   -0.186080    2.913922
   1 Cl:    0.186080    0.086078

  Mayer bond orders larger than 0.100000
B(  0-Ti,  1-Cl) :   1.2352

FINAL SINGLE POINT ENERGY     -1309.589092960237

DIPOLE MOMENT
-------------
                                X             Y             Z
Electronic contribution:      0.00151       0.00042      -3.67887
Nuclear contribution   :      0.00000       0.00000       1.73863
                        -----------------------------------------
Total Dipole Moment    :      0.00151       0.00042      -1.94023
                        -----------------------------------------
Magnitude (a.u.)       :      1.94023
Magnitude (Debye)      :      4.93168

Rotational constants in cm-1:     0.000000     0.165851     0.165851
Rotational constants in MHz :     0.000000  4972.077671  4972.077671

                             ****ORCA TERMINATED NORMALLY****
TOTAL RUN TIME: 0 days 0 hours 13 minutes 15 seconds 20 msec
