                         Program Version 4.2.0 -  RELEASE  -
|  1> #
|  2> # 10_TiBr wb97m-v/aug-cc-pvtz
|  3> #
|  4> ! wb97m-v aug-cc-pvtz def2/jk grid4 nofinalgrid
|  5>
|  6> *xyz 0 4
|  7>   Ti  0.00000000000000      0.00000000000000     -0.20373332414567
|  8>   Br  0.00000000000000      0.00000000000000      2.20373332414567
|  9> *
| 10>
| 11> %pal
| 12> nprocs 24
| 13> end
| 14>
| 15>
| 16>                          ****END OF INPUT****

CARTESIAN COORDINATES (ANGSTROEM)
---------------------------------
  Ti     0.000000    0.000000   -0.203733
  Br     0.000000    0.000000    2.203733

 Total Charge           Charge          ....    0
 Multiplicity           Mult            ....    4
 Number of Electrons    NEL             ....   57
 Basis Dimension        Dim             ....  152

ORBITAL ENERGIES
----------------
                 SPIN UP ORBITALS
  NO   OCC          E(Eh)            E(eV)
   0   1.0000    -483.468266    -13155.8403
   1   1.0000    -179.250779     -4877.6617
   2   1.0000     -62.773272     -1708.1476
   3   1.0000     -56.458678     -1536.3187
   4   1.0000     -56.458273     -1536.3077
   5   1.0000     -56.458273     -1536.3077
   6   1.0000     -20.045752      -545.4727
   7   1.0000     -16.689983      -454.1575
   8   1.0000     -16.680950      -453.9117
   9   1.0000     -16.680908      -453.9106
  10   1.0000      -8.851836      -240.8707
  11   1.0000      -6.630911      -180.4363
  12   1.0000      -6.629054      -180.3857
  13   1.0000      -6.629053      -180.3857
  14   1.0000      -2.713995       -73.8516
  15   1.0000      -2.713249       -73.8313
  16   1.0000      -2.713249       -73.8313
  17   1.0000      -2.711737       -73.7901
  18   1.0000      -2.711704       -73.7892
  19   1.0000      -2.486387       -67.6580
  20   1.0000      -1.596491       -43.4427
  21   1.0000      -1.583448       -43.0878
  22   1.0000      -1.583428       -43.0873
  23   1.0000      -0.840861       -22.8810
  24   1.0000      -0.402916       -10.9639
  25   1.0000      -0.370018       -10.0687
  26   1.0000      -0.370017       -10.0687
  27   1.0000      -0.271674        -7.3926
  28   1.0000      -0.271673        -7.3926
  29   1.0000      -0.264653        -7.2016
  30   0.0000      -0.025555        -0.6954
  31   0.0000      -0.003532        -0.0961
  32   0.0000      -0.003518        -0.0957
  33   0.0000       0.013688         0.3725
  34   0.0000       0.015950         0.4340

                 SPIN DOWN ORBITALS
  NO   OCC          E(Eh)            E(eV)
   0   1.0000    -483.468302    -13155.8413
   1   1.0000    -179.249948     -4877.6391
   2   1.0000     -62.773273     -1708.1476
   3   1.0000     -56.458720     -1536.3199
   4   1.0000     -56.458294     -1536.3083
   5   1.0000     -56.458294     -1536.3083
   6   1.0000     -20.019208      -544.7503
   7   1.0000     -16.678631      -453.8486
   8   1.0000     -16.654174      -453.1831
   9   1.0000     -16.654101      -453.1811
  10   1.0000      -8.851875      -240.8718
  11   1.0000      -6.630959      -180.4376
  12   1.0000      -6.629105      -180.3871
  13   1.0000      -6.629104      -180.3871
  14   1.0000      -2.714003       -73.8518
  15   1.0000      -2.713308       -73.8329
  16   1.0000      -2.713307       -73.8328
  17   1.0000      -2.711791       -73.7916
  18   1.0000      -2.711758       -73.7907
  19   1.0000      -2.409862       -65.5757
  20   1.0000      -1.543333       -41.9962
  21   1.0000      -1.479234       -40.2520
  22   1.0000      -1.479089       -40.2480
  23   1.0000      -0.840282       -22.8652
  24   1.0000      -0.397435       -10.8148
  25   1.0000      -0.369223       -10.0471
  26   1.0000      -0.369222       -10.0470
  27   0.0000      -0.237382        -6.4595
  28   0.0000      -0.181699        -4.9443
  29   0.0000      -0.160740        -4.3740
  30   0.0000      -0.139695        -3.8013
  31   0.0000      -0.126373        -3.4388

MULLIKEN ATOMIC CHARGES AND SPIN POPULATIONS
--------------------------------------------
   0 Ti:    0.316092    2.940609
   1 Br:   -0.316092    0.059391
Sum of atomic charges         :   -0.0000000

LOEWDIN ATOMIC CHARGES AND SPIN POPULATIONS
-------------------------------------------
   0 Ti:   -0.270408    2.913095
   1 Br:    0.270408    0.086905

  Mayer bond orders larger than 0.100000
B(  0-Ti,  1-Br) :   1.3095

FINAL SINGLE POINT ENERGY     -3423.448743050223

DIPOLE MOMENT
-------------
                                X             Y             Z
Electronic contribution:      0.00315       0.00212       0.76141
Nuclear contribution   :      0.00000       0.00000      -2.89414
                        -----------------------------------------
Total Dipole Moment    :      0.00315       0.00212      -2.13272
                        -----------------------------------------
Magnitude (a.u.)       :      2.13273
Magnitude (Debye)      :      5.42096

Rotational constants in cm-1:     0.000000     0.097124     0.097124
Rotational constants in MHz :     0.000000  2911.693161  2911.693161

                             ****ORCA TERMINATED NORMALLY****
TOTAL RUN TIME: 0 days 0 hours 43 minutes 58 seconds 57 msec
