                         Program Version 4.2.0 -  RELEASE  -
|  1> #
|  2> # 13_VH wb97m-v/aug-cc-pvtz
|  3> #
|  4> ! wb97m-v aug-cc-pvtz def2/jk grid4 nofinalgrid
|  5>
|  6> *xyz 0 5
|  7>   V   0.00000000000000      0.00000000000000      0.15541431667182
|  8>   H   0.00000000000000      0.00000000000000      1.84458568332818
|  9> *
| 10>
| 11> %pal
| 12> nprocs 24
| 13> end
| 14>
| 15>
| 16>                          ****END OF INPUT****

CARTESIAN COORDINATES (ANGSTROEM)
---------------------------------
  V      0.000000    0.000000    0.155414
  H      0.000000    0.000000    1.844586

 Total Charge           Charge          ....    0
 Multiplicity           Mult            ....    5
 Number of Electrons    NEL             ....   24
 Basis Dimension        Dim             ....  116

ORBITAL ENERGIES
----------------
                 SPIN UP ORBITALS
  NO   OCC          E(Eh)            E(eV)
   0   1.0000    -197.179967     -5365.5397
   1   1.0000     -22.317672      -607.2947
   2   1.0000     -18.746264      -510.1118
   3   1.0000     -18.736775      -509.8536
   4   1.0000     -18.736775      -509.8536
   5   1.0000      -2.678044       -72.8733
   6   1.0000      -1.703916       -46.3659
   7   1.0000      -1.702652       -46.3315
   8   1.0000      -1.702652       -46.3315
   9   1.0000      -0.338411        -9.2086
  10   1.0000      -0.252733        -6.8772
  11   1.0000      -0.252733        -6.8772
  12   1.0000      -0.233179        -6.3451
  13   1.0000      -0.233179        -6.3451
  14   0.0000      -0.027995        -0.7618
  15   0.0000       0.006095         0.1658
  16   0.0000       0.006095         0.1658
  17   0.0000       0.015837         0.4309
  18   0.0000       0.022191         0.6038

                 SPIN DOWN ORBITALS
  NO   OCC          E(Eh)            E(eV)
   0   1.0000    -197.179715     -5365.5328
   1   1.0000     -22.268391      -605.9537
   2   1.0000     -18.713626      -509.2236
   3   1.0000     -18.693551      -508.6774
   4   1.0000     -18.693551      -508.6774
   5   1.0000      -2.551041       -69.4174
   6   1.0000      -1.584197       -43.1082
   7   1.0000      -1.544960       -42.0405
   8   1.0000      -1.544960       -42.0405
   9   1.0000      -0.317530        -8.6404
  10   0.0000      -0.070376        -1.9150
  11   0.0000      -0.035666        -0.9705
  12   0.0000      -0.035666        -0.9705
  13   0.0000      -0.002867        -0.0780
  14   0.0000       0.005124         0.1394

MULLIKEN ATOMIC CHARGES AND SPIN POPULATIONS
--------------------------------------------
   0 V :    0.250557    4.066859
   1 H :   -0.250557   -0.066859
Sum of atomic charges         :   -0.0000000

LOEWDIN ATOMIC CHARGES AND SPIN POPULATIONS
-------------------------------------------
   0 V :    0.671459    3.850758
   1 H :   -0.671459    0.149242

  Mayer bond orders larger than 0.100000
B(  0-V ,  1-H ) :   0.9394

FINAL SINGLE POINT ENERGY      -944.422909987463

DIPOLE MOMENT
-------------
                                X             Y             Z
Electronic contribution:     -0.00000      -0.00000      -3.28166
Nuclear contribution   :      0.00000       0.00000       1.70553
                        -----------------------------------------
Total Dipole Moment    :     -0.00000      -0.00000      -1.57612
                        -----------------------------------------
Magnitude (a.u.)       :      1.57612
Magnitude (Debye)      :      4.00618

Rotational constants in cm-1:     0.000000     5.977214     5.977214
Rotational constants in MHz :     0.000000 179192.381350 179192.381350

                             ****ORCA TERMINATED NORMALLY****
TOTAL RUN TIME: 0 days 0 hours 3 minutes 19 seconds 232 msec
