                         Program Version 4.2.0 -  RELEASE  -
|  1> #
|  2> # 16_VBr wb97m-v/aug-cc-pvtz
|  3> #
|  4> ! wb97m-v aug-cc-pvtz def2/jk grid4 nofinalgrid
|  5>
|  6> *xyz 0 5
|  7>   V   0.00000000000000      0.00000000000000     -0.18045152200616
|  8>   Br  0.00000000000000      0.00000000000000      2.18045152200616
|  9> *
| 10>
| 11> %pal
| 12> nprocs 24
| 13> end
| 14>
| 15>
| 16>                          ****END OF INPUT****

CARTESIAN COORDINATES (ANGSTROEM)
---------------------------------
  V      0.000000    0.000000   -0.180452
  Br     0.000000    0.000000    2.180452

 Total Charge           Charge          ....    0
 Multiplicity           Mult            ....    5
 Number of Electrons    NEL             ....   58
 Basis Dimension        Dim             ....  152

ORBITAL ENERGIES
----------------
                 SPIN UP ORBITALS
  NO   OCC          E(Eh)            E(eV)
   0   1.0000    -483.468666    -13155.8512
   1   1.0000    -197.272075     -5368.0461
   2   1.0000     -62.773654     -1708.1580
   3   1.0000     -56.459121     -1536.3308
   4   1.0000     -56.458703     -1536.3194
   5   1.0000     -56.458564     -1536.3156
   6   1.0000     -22.418753      -610.0453
   7   1.0000     -18.842479      -512.7299
   8   1.0000     -18.840986      -512.6893
   9   1.0000     -18.837353      -512.5904
  10   1.0000      -8.852270      -240.8825
  11   1.0000      -6.631605      -180.4551
  12   1.0000      -6.629700      -180.4033
  13   1.0000      -6.629021      -180.3848
  14   1.0000      -2.770605       -75.3920
  15   1.0000      -2.714635       -73.8690
  16   1.0000      -2.714054       -73.8532
  17   1.0000      -2.713515       -73.8385
  18   1.0000      -2.711935       -73.7955
  19   1.0000      -2.711919       -73.7951
  20   1.0000      -1.796340       -48.8809
  21   1.0000      -1.791639       -48.7530
  22   1.0000      -1.785892       -48.5966
  23   1.0000      -0.842481       -22.9251
  24   1.0000      -0.412799       -11.2328
  25   1.0000      -0.386325       -10.5124
  26   1.0000      -0.371935       -10.1209
  27   1.0000      -0.324061        -8.8181
  28   1.0000      -0.318884        -8.6773
  29   1.0000      -0.307968        -8.3802
  30   1.0000      -0.279972        -7.6184
  31   0.0000      -0.028218        -0.7679
  32   0.0000      -0.002570        -0.0699
  33   0.0000       0.003739         0.1017
  34   0.0000       0.015557         0.4233
  35   0.0000       0.016739         0.4555

                 SPIN DOWN ORBITALS
  NO   OCC          E(Eh)            E(eV)
   0   1.0000    -483.468676    -13155.8515
   1   1.0000    -197.270960     -5368.0157
   2   1.0000     -62.773635     -1708.1574
   3   1.0000     -56.459183     -1536.3325
   4   1.0000     -56.458761     -1536.3210
   5   1.0000     -56.458418     -1536.3117
   6   1.0000     -22.370860      -608.7421
   7   1.0000     -18.810686      -511.8648
   8   1.0000     -18.802460      -511.6409
   9   1.0000     -18.791827      -511.3516
  10   1.0000      -8.852268      -240.8825
  11   1.0000      -6.631711      -180.4580
  12   1.0000      -6.629801      -180.4061
  13   1.0000      -6.628808      -180.3790
  14   1.0000      -2.714738       -73.8718
  15   1.0000      -2.714197       -73.8571
  16   1.0000      -2.713448       -73.8367
  17   1.0000      -2.711858       -73.7934
  18   1.0000      -2.711819       -73.7923
  19   1.0000      -2.649718       -72.1025
  20   1.0000      -1.678518       -45.6748
  21   1.0000      -1.656843       -45.0850
  22   1.0000      -1.629330       -44.3363
  23   1.0000      -0.840868       -22.8812
  24   1.0000      -0.398908       -10.8548
  25   1.0000      -0.370928       -10.0935
  26   1.0000      -0.367995       -10.0137
  27   0.0000      -0.171492        -4.6665
  28   0.0000      -0.136052        -3.7022
  29   0.0000      -0.113834        -3.0976
  30   0.0000      -0.094654        -2.5757
  31   0.0000      -0.046631        -1.2689

MULLIKEN ATOMIC CHARGES AND SPIN POPULATIONS
--------------------------------------------
   0 V :    0.325639    3.942935
   1 Br:   -0.325639    0.057065
Sum of atomic charges         :   -0.0000000

LOEWDIN ATOMIC CHARGES AND SPIN POPULATIONS
-------------------------------------------
   0 V :   -0.136246    3.876436
   1 Br:    0.136246    0.123564

  Mayer bond orders larger than 0.100000
B(  0-V ,  1-Br) :   1.2467

FINAL SINGLE POINT ENERGY     -3518.002074703041

DIPOLE MOMENT
-------------
                                X             Y             Z
Electronic contribution:     -0.00018      -0.00014      -0.09818
Nuclear contribution   :      0.00000       0.00000      -1.86860
                        -----------------------------------------
Total Dipole Moment    :     -0.00018      -0.00014      -1.96678
                        -----------------------------------------
Magnitude (a.u.)       :      1.96678
Magnitude (Debye)      :      4.99917

Rotational constants in cm-1:     0.000000     0.097224     0.097224
Rotational constants in MHz :     0.000000  2914.715129  2914.715129

                             ****ORCA TERMINATED NORMALLY****
TOTAL RUN TIME: 0 days 0 hours 26 minutes 49 seconds 803 msec
