                         Program Version 4.2.0 -  RELEASE  -
|  1> #
|  2> # 17_VO wb97m-v/aug-cc-pvtz
|  3> #
|  4> ! wb97m-v aug-cc-pvtz def2/jk grid4 nofinalgrid
|  5>
|  6> *xyz 0 4
|  7>   V   0.00000000000000      0.00000000000000      0.20415600493149
|  8>   O   0.00000000000000      0.00000000000000      1.79584399506851
|  9> *
| 10>
| 11> %pal
| 12> nprocs 24
| 13> end
| 14>
| 15>
| 16>                          ****END OF INPUT****

CARTESIAN COORDINATES (ANGSTROEM)
---------------------------------
  V      0.000000    0.000000    0.204156
  O      0.000000    0.000000    1.795844

 Total Charge           Charge          ....    0
 Multiplicity           Mult            ....    4
 Number of Electrons    NEL             ....   31
 Basis Dimension        Dim             ....  139

ORBITAL ENERGIES
----------------
                 SPIN UP ORBITALS
  NO   OCC          E(Eh)            E(eV)
   0   1.0000    -197.320768     -5369.3711
   1   1.0000     -22.475054      -611.5773
   2   1.0000     -19.319515      -525.7107
   3   1.0000     -18.902162      -514.3540
   4   1.0000     -18.893808      -514.1266
   5   1.0000     -18.893807      -514.1266
   6   1.0000      -2.802645       -76.2639
   7   1.0000      -1.834321       -49.9144
   8   1.0000      -1.815754       -49.4092
   9   1.0000      -1.815752       -49.4091
  10   1.0000      -0.993075       -27.0229
  11   1.0000      -0.446835       -12.1590
  12   1.0000      -0.426614       -11.6088
  13   1.0000      -0.426608       -11.6086
  14   1.0000      -0.338727        -9.2172
  15   1.0000      -0.338727        -9.2172
  16   1.0000      -0.270615        -7.3638
  17   0.0000      -0.010824        -0.2945
  18   0.0000      -0.010824        -0.2945
  19   0.0000      -0.008848        -0.2408
  20   0.0000       0.016561         0.4506
  21   0.0000       0.025585         0.6962

                 SPIN DOWN ORBITALS
  NO   OCC          E(Eh)            E(eV)
   0   1.0000    -197.319466     -5369.3356
   1   1.0000     -22.439415      -610.6075
   2   1.0000     -19.326405      -525.8982
   3   1.0000     -18.887901      -513.9659
   4   1.0000     -18.858087      -513.1546
   5   1.0000     -18.858085      -513.1546
   6   1.0000      -2.714733       -73.8716
   7   1.0000      -1.779666       -48.4272
   8   1.0000      -1.695243       -46.1299
   9   1.0000      -1.695237       -46.1297
  10   1.0000      -1.005446       -27.3596
  11   1.0000      -0.439832       -11.9684
  12   1.0000      -0.433168       -11.7871
  13   1.0000      -0.433160       -11.7869
  14   0.0000      -0.242502        -6.5988
  15   0.0000      -0.215310        -5.8589
  16   0.0000      -0.215301        -5.8586
  17   0.0000      -0.101061        -2.7500
  18   0.0000      -0.091457        -2.4887

MULLIKEN ATOMIC CHARGES AND SPIN POPULATIONS
--------------------------------------------
   0 V :    0.536488    3.225793
   1 O :   -0.536488   -0.225793
Sum of atomic charges         :   -0.0000000

LOEWDIN ATOMIC CHARGES AND SPIN POPULATIONS
-------------------------------------------
   0 V :    0.593603    3.026844
   1 O :   -0.593603   -0.026844

  Mayer bond orders larger than 0.100000
B(  0-V ,  1-O ) :   2.3274

FINAL SINGLE POINT ENERGY     -1019.141781211863

DIPOLE MOMENT
-------------
                                X             Y             Z
Electronic contribution:     -0.00040      -0.00106      -3.33669
Nuclear contribution   :      0.00000       0.00000       1.77684
                        -----------------------------------------
Total Dipole Moment    :     -0.00040      -0.00106      -1.55986
                        -----------------------------------------
Magnitude (a.u.)       :      1.55986
Magnitude (Debye)      :      3.96485

Rotational constants in cm-1:     0.000000     0.546523     0.546523
Rotational constants in MHz :     0.000000 16384.348098 16384.348098

                             ****ORCA TERMINATED NORMALLY****
TOTAL RUN TIME: 0 days 0 hours 23 minutes 31 seconds 183 msec
