                         Program Version 4.2.0 -  RELEASE  -
|  1> #
|  2> # 18_VS wb97m-v/aug-cc-pvtz
|  3> #
|  4> ! wb97m-v aug-cc-pvtz def2/jk grid4 nofinalgrid
|  5>
|  6> *xyz 0 4
|  7>   V   0.00000000000000      0.00000000000000     -0.02784157502378
|  8>   S   0.00000000000000      0.00000000000000      2.02784157502377
|  9> *
| 10>
| 11> %pal
| 12> nprocs 24
| 13> end
| 14>
| 15>
| 16>                          ****END OF INPUT****

CARTESIAN COORDINATES (ANGSTROEM)
---------------------------------
  V      0.000000    0.000000   -0.027842
  S      0.000000    0.000000    2.027842

 Total Charge           Charge          ....    0
 Multiplicity           Mult            ....    4
 Number of Electrons    NEL             ....   39
 Basis Dimension        Dim             ....  143

ORBITAL ENERGIES
----------------
                 SPIN UP ORBITALS
  NO   OCC          E(Eh)            E(eV)
   0   1.0000    -197.301069     -5368.8350
   1   1.0000     -89.145322     -2425.7675
   2   1.0000     -22.451349      -610.9323
   3   1.0000     -18.877106      -513.6722
   4   1.0000     -18.870807      -513.5008
   5   1.0000     -18.870807      -513.5008
   6   1.0000      -8.060119      -219.3270
   7   1.0000      -5.966286      -162.3509
   8   1.0000      -5.965781      -162.3371
   9   1.0000      -5.965781      -162.3371
  10   1.0000      -2.790126       -75.9232
  11   1.0000      -1.815781       -49.4099
  12   1.0000      -1.805255       -49.1235
  13   1.0000      -1.805255       -49.1235
  14   1.0000      -0.727724       -19.8024
  15   1.0000      -0.385005       -10.4765
  16   1.0000      -0.331364        -9.0169
  17   1.0000      -0.331363        -9.0168
  18   1.0000      -0.328312        -8.9338
  19   1.0000      -0.328312        -8.9338
  20   1.0000      -0.292768        -7.9666
  21   0.0000      -0.041146        -1.1197
  22   0.0000      -0.014649        -0.3986
  23   0.0000      -0.014649        -0.3986
  24   0.0000       0.013423         0.3653
  25   0.0000       0.017530         0.4770

                 SPIN DOWN ORBITALS
  NO   OCC          E(Eh)            E(eV)
   0   1.0000    -197.300172     -5368.8106
   1   1.0000     -89.147714     -2425.8326
   2   1.0000     -22.409689      -609.7986
   3   1.0000     -18.853691      -513.0350
   4   1.0000     -18.832252      -512.4516
   5   1.0000     -18.832252      -512.4516
   6   1.0000      -8.062506      -219.3919
   7   1.0000      -5.970135      -162.4556
   8   1.0000      -5.970135      -162.4556
   9   1.0000      -5.969294      -162.4327
  10   1.0000      -2.685529       -73.0770
  11   1.0000      -1.726294       -46.9749
  12   1.0000      -1.673146       -45.5286
  13   1.0000      -1.673146       -45.5286
  14   1.0000      -0.738236       -20.0884
  15   1.0000      -0.349905        -9.5214
  16   1.0000      -0.328325        -8.9342
  17   1.0000      -0.328324        -8.9342
  18   0.0000      -0.102607        -2.7921
  19   0.0000      -0.054608        -1.4860
  20   0.0000      -0.054607        -1.4859
  21   0.0000      -0.021774        -0.5925
  22   0.0000      -0.002856        -0.0777

MULLIKEN ATOMIC CHARGES AND SPIN POPULATIONS
--------------------------------------------
   0 V :    0.158084    3.331925
   1 S :   -0.158084   -0.331925
Sum of atomic charges         :   -0.0000000

LOEWDIN ATOMIC CHARGES AND SPIN POPULATIONS
-------------------------------------------
   0 V :    0.067157    3.154251
   1 S :   -0.067157   -0.154251

  Mayer bond orders larger than 0.100000
B(  0-V ,  1-S ) :   2.5557

FINAL SINGLE POINT ENERGY     -1342.102575598869

DIPOLE MOMENT
-------------
                                X             Y             Z
Electronic contribution:     -0.00001       0.00000      -6.19644
Nuclear contribution   :      0.00000       0.00000       3.63475
                        -----------------------------------------
Total Dipole Moment    :     -0.00001       0.00000      -2.56169
                        -----------------------------------------
Magnitude (a.u.)       :      2.56169
Magnitude (Debye)      :      6.51130

Rotational constants in cm-1:     0.000000     0.202740     0.202740
Rotational constants in MHz :     0.000000  6078.002656  6078.002656

                             ****ORCA TERMINATED NORMALLY****
TOTAL RUN TIME: 0 days 0 hours 8 minutes 36 seconds 608 msec
