                         Program Version 4.2.0 -  RELEASE  -
|  1> #
|  2> # 20_CrF wb97m-v/aug-cc-pvtz
|  3> #
|  4> ! wb97m-v aug-cc-pvtz def2/jk grid4 nofinalgrid slowconv
|  5>
|  6> *xyz 0 6
|  7>   Cr  0.00000000000000      0.00000000000000      0.10659678981823
|  8>   F   0.00000000000000      0.00000000000000      1.89340321018177
|  9> *
| 10>
| 11> %scf
| 12> maxiter 300
| 13> diismaxeq 15
| 14> directresetfreq 1
| 15> end
| 16>
| 17> %pal
| 18> nprocs 24
| 19> end
| 20>
| 21>
| 22>                          ****END OF INPUT****

CARTESIAN COORDINATES (ANGSTROEM)
---------------------------------
  Cr     0.000000    0.000000    0.106597
  F      0.000000    0.000000    1.893403

 Total Charge           Charge          ....    0
 Multiplicity           Mult            ....    6
 Number of Electrons    NEL             ....   33
 Basis Dimension        Dim             ....  139

ORBITAL ENERGIES
----------------
                 SPIN UP ORBITALS
  NO   OCC          E(Eh)            E(eV)
   0   1.0000    -216.153871     -5881.8458
   1   1.0000     -24.907691      -677.7727
   2   1.0000     -24.820578      -675.4023
   3   1.0000     -21.110822      -574.4547
   4   1.0000     -21.110500      -574.4459
   5   1.0000     -21.110500      -574.4459
   6   1.0000      -3.058578       -83.2281
   7   1.0000      -1.999569       -54.4110
   8   1.0000      -1.994251       -54.2663
   9   1.0000      -1.994250       -54.2663
  10   1.0000      -1.211516       -32.9670
  11   1.0000      -0.494673       -13.4607
  12   1.0000      -0.480047       -13.0628
  13   1.0000      -0.480046       -13.0627
  14   1.0000      -0.353187        -9.6107
  15   1.0000      -0.353186        -9.6107
  16   1.0000      -0.340799        -9.2736
  17   1.0000      -0.340796        -9.2735
  18   1.0000      -0.291447        -7.9307
  19   0.0000      -0.020691        -0.5630
  20   0.0000       0.005144         0.1400
  21   0.0000       0.005149         0.1401
  22   0.0000       0.020281         0.5519
  23   0.0000       0.022760         0.6193

                 SPIN DOWN ORBITALS
  NO   OCC          E(Eh)            E(eV)
   0   1.0000    -216.152099     -5881.7976
   1   1.0000     -24.836240      -675.8284
   2   1.0000     -24.819328      -675.3683
   3   1.0000     -21.060027      -573.0725
   4   1.0000     -21.050163      -572.8041
   5   1.0000     -21.050163      -572.8041
   6   1.0000      -2.890128       -78.6444
   7   1.0000      -1.826668       -49.7062
   8   1.0000      -1.799324       -48.9621
   9   1.0000      -1.799324       -48.9621
  10   1.0000      -1.206666       -32.8350
  11   1.0000      -0.486701       -13.2438
  12   1.0000      -0.460733       -12.5372
  13   1.0000      -0.460730       -12.5371
  14   0.0000      -0.251749        -6.8504
  15   0.0000      -0.232935        -6.3385
  16   0.0000      -0.212447        -5.7810
  17   0.0000      -0.210829        -5.7370
  18   0.0000      -0.198991        -5.4148

MULLIKEN ATOMIC CHARGES AND SPIN POPULATIONS
--------------------------------------------
   0 Cr:    0.561945    4.970577
   1 F :   -0.561945    0.029423
Sum of atomic charges         :    0.0000000

LOEWDIN ATOMIC CHARGES AND SPIN POPULATIONS
-------------------------------------------
   0 Cr:    0.389439    4.844219
   1 F :   -0.389439    0.155781

  Mayer bond orders larger than 0.100000
B(  0-Cr,  1-F ) :   0.7548

FINAL SINGLE POINT ENERGY     -1144.292254375505

DIPOLE MOMENT
-------------
                                X             Y             Z
Electronic contribution:      0.00004       0.00001      -2.24549
Nuclear contribution   :      0.00000       0.00000       0.57299
                        -----------------------------------------
Total Dipole Moment    :      0.00004       0.00001      -1.67250
                        -----------------------------------------
Magnitude (a.u.)       :      1.67250
Magnitude (Debye)      :      4.25117

Rotational constants in cm-1:     0.000000     0.379469     0.379469
Rotational constants in MHz :     0.000000 11376.206933 11376.206933

                             ****ORCA TERMINATED NORMALLY****
TOTAL RUN TIME: 0 days 0 hours 19 minutes 12 seconds 319 msec
