                         Program Version 4.2.0 -  RELEASE  -
|  1> #
|  2> # 22_CrBr wb97m-v/aug-cc-pvtz
|  3> #
|  4> ! wb97m-v aug-cc-pvtz def2/jk grid4 nofinalgrid
|  5>
|  6> *xyz 0 6
|  7>   Cr  0.00000000000000      0.00000000000000     -0.17198862284832
|  8>   Br  0.00000000000000      0.00000000000000      2.17198862284831
|  9> *
| 10>
| 11> %pal
| 12> nprocs 24
| 13> end
| 14>
| 15>
| 16>                          ****END OF INPUT****

CARTESIAN COORDINATES (ANGSTROEM)
---------------------------------
  Cr     0.000000    0.000000   -0.171989
  Br     0.000000    0.000000    2.171989

 Total Charge           Charge          ....    0
 Multiplicity           Mult            ....    6
 Number of Electrons    NEL             ....   59
 Basis Dimension        Dim             ....  152

ORBITAL ENERGIES
----------------
                 SPIN UP ORBITALS
  NO   OCC          E(Eh)            E(eV)
   0   1.0000    -483.459128    -13155.5917
   1   1.0000    -216.131643     -5881.2410
   2   1.0000     -62.764003     -1707.8954
   3   1.0000     -56.449594     -1536.0715
   4   1.0000     -56.448943     -1536.0538
   5   1.0000     -56.448943     -1536.0538
   6   1.0000     -24.878689      -676.9835
   7   1.0000     -21.082668      -573.6886
   8   1.0000     -21.082668      -573.6886
   9   1.0000     -21.080956      -573.6420
  10   1.0000      -8.842520      -240.6172
  11   1.0000      -6.622337      -180.2030
  12   1.0000      -6.619363      -180.1220
  13   1.0000      -6.619363      -180.1220
  14   1.0000      -3.037371       -82.6511
  15   1.0000      -2.705215       -73.6126
  16   1.0000      -2.704207       -73.5852
  17   1.0000      -2.704207       -73.5852
  18   1.0000      -2.701808       -73.5199
  19   1.0000      -2.701771       -73.5189
  20   1.0000      -1.979764       -53.8721
  21   1.0000      -1.975699       -53.7615
  22   1.0000      -1.975699       -53.7615
  23   1.0000      -0.832696       -22.6588
  24   1.0000      -0.405051       -11.0220
  25   1.0000      -0.384739       -10.4693
  26   1.0000      -0.384739       -10.4693
  27   1.0000      -0.339651        -9.2424
  28   1.0000      -0.339648        -9.2423
  29   1.0000      -0.317380        -8.6363
  30   1.0000      -0.317380        -8.6363
  31   1.0000      -0.309016        -8.4087
  32   0.0000      -0.041826        -1.1382
  33   0.0000       0.004529         0.1232
  34   0.0000       0.004529         0.1232
  35   0.0000       0.016636         0.4527
  36   0.0000       0.019742         0.5372

                 SPIN DOWN ORBITALS
  NO   OCC          E(Eh)            E(eV)
   0   1.0000    -483.459136    -13155.5919
   1   1.0000    -216.130444     -5881.2084
   2   1.0000     -62.763978     -1707.8947
   3   1.0000     -56.449792     -1536.0769
   4   1.0000     -56.448812     -1536.0503
   5   1.0000     -56.448812     -1536.0503
   6   1.0000     -24.805100      -674.9811
   7   1.0000     -21.025317      -572.1280
   8   1.0000     -21.022241      -572.0443
   9   1.0000     -21.022241      -572.0443
  10   1.0000      -8.842515      -240.6171
  11   1.0000      -6.622684      -180.2124
  12   1.0000      -6.619169      -180.1167
  13   1.0000      -6.619169      -180.1167
  14   1.0000      -2.861872       -77.8755
  15   1.0000      -2.705393       -73.6175
  16   1.0000      -2.704318       -73.5882
  17   1.0000      -2.704318       -73.5882
  18   1.0000      -2.701553       -73.5130
  19   1.0000      -2.701516       -73.5120
  20   1.0000      -1.787727       -48.6465
  21   1.0000      -1.776665       -48.3455
  22   1.0000      -1.776665       -48.3455
  23   1.0000      -0.830512       -22.5994
  24   1.0000      -0.388940       -10.5836
  25   1.0000      -0.358865        -9.7652
  26   1.0000      -0.358865        -9.7652
  27   0.0000      -0.134062        -3.6480
  28   0.0000      -0.082174        -2.2361
  29   0.0000      -0.082162        -2.2357
  30   0.0000      -0.023244        -0.6325
  31   0.0000      -0.010331        -0.2811

MULLIKEN ATOMIC CHARGES AND SPIN POPULATIONS
--------------------------------------------
   0 Cr:    0.321377    4.991101
   1 Br:   -0.321377    0.008899
Sum of atomic charges         :   -0.0000000

LOEWDIN ATOMIC CHARGES AND SPIN POPULATIONS
-------------------------------------------
   0 Cr:   -0.074824    4.865165
   1 Br:    0.074824    0.134835

  Mayer bond orders larger than 0.100000
B(  0-Cr,  1-Br) :   1.1487

FINAL SINGLE POINT ENERGY     -3618.516871272362

DIPOLE MOMENT
-------------
                                X             Y             Z
Electronic contribution:      0.00000       0.00000       1.01199
Nuclear contribution   :      0.00000       0.00000      -3.27761
                        -----------------------------------------
Total Dipole Moment    :      0.00000       0.00000      -2.26562
                        -----------------------------------------
Magnitude (a.u.)       :      2.26562
Magnitude (Debye)      :      5.75874

Rotational constants in cm-1:     0.000000     0.097406     0.097406
Rotational constants in MHz :     0.000000  2920.152240  2920.152240

                             ****ORCA TERMINATED NORMALLY****
TOTAL RUN TIME: 0 days 0 hours 9 minutes 16 seconds 954 msec
