                         Program Version 4.2.0 -  RELEASE  -
|  1> #
|  2> # 23_CrO wb97m-v/aug-cc-pvtz
|  3> #
|  4> ! wb97m-v aug-cc-pvtz def2/jk grid4 nofinalgrid
|  5>
|  6> *xyz 0 5
|  7>   Cr  0.00000000000000      0.00000000000000      0.19264925280896
|  8>   O   0.00000000000000      0.00000000000000      1.80735074719104
|  9> *
| 10>
| 11> %pal
| 12> nprocs 24
| 13> end
| 14>
| 15>
| 16>                          ****END OF INPUT****

CARTESIAN COORDINATES (ANGSTROEM)
---------------------------------
  Cr     0.000000    0.000000    0.192649
  O      0.000000    0.000000    1.807351

 Total Charge           Charge          ....    0
 Multiplicity           Mult            ....    5
 Number of Electrons    NEL             ....   32
 Basis Dimension        Dim             ....  139

ORBITAL ENERGIES
----------------
                 SPIN UP ORBITALS
  NO   OCC          E(Eh)            E(eV)
   0   1.0000    -216.212395     -5883.4384
   1   1.0000     -24.972035      -679.5236
   2   1.0000     -21.177507      -576.2693
   3   1.0000     -21.176414      -576.2395
   4   1.0000     -21.171387      -576.1027
   5   1.0000     -19.309947      -525.4504
   6   1.0000      -3.103346       -84.4463
   7   1.0000      -2.042990       -55.5926
   8   1.0000      -2.038329       -55.4657
   9   1.0000      -2.032621       -55.3104
  10   1.0000      -0.987802       -26.8795
  11   1.0000      -0.462112       -12.5747
  12   1.0000      -0.453394       -12.3375
  13   1.0000      -0.416078       -11.3221
  14   1.0000      -0.392045       -10.6681
  15   1.0000      -0.390594       -10.6286
  16   1.0000      -0.313910        -8.5419
  17   1.0000      -0.297288        -8.0896
  18   0.0000      -0.027223        -0.7408
  19   0.0000      -0.020130        -0.5478
  20   0.0000       0.007735         0.2105
  21   0.0000       0.015836         0.4309
  22   0.0000       0.019855         0.5403

                 SPIN DOWN ORBITALS
  NO   OCC          E(Eh)            E(eV)
   0   1.0000    -216.210489     -5883.3865
   1   1.0000     -24.910772      -677.8566
   2   1.0000     -21.137818      -575.1893
   3   1.0000     -21.127603      -574.9113
   4   1.0000     -21.112880      -574.5107
   5   1.0000     -19.318016      -525.6699
   6   1.0000      -2.960876       -80.5695
   7   1.0000      -1.913079       -52.0575
   8   1.0000      -1.878898       -51.1274
   9   1.0000      -1.848680       -50.3051
  10   1.0000      -1.003106       -27.2959
  11   1.0000      -0.433292       -11.7905
  12   1.0000      -0.429442       -11.6857
  13   1.0000      -0.408826       -11.1247
  14   0.0000      -0.198609        -5.4044
  15   0.0000      -0.162436        -4.4201
  16   0.0000      -0.154750        -4.2110
  17   0.0000      -0.071460        -1.9445
  18   0.0000      -0.050356        -1.3703

MULLIKEN ATOMIC CHARGES AND SPIN POPULATIONS
--------------------------------------------
   0 Cr:    0.578929    4.248254
   1 O :   -0.578929   -0.248254
Sum of atomic charges         :    0.0000000

LOEWDIN ATOMIC CHARGES AND SPIN POPULATIONS
-------------------------------------------
   0 Cr:    0.586545    4.067537
   1 O :   -0.586545   -0.067537

  Mayer bond orders larger than 0.100000
B(  0-Cr,  1-O ) :   2.1104

FINAL SINGLE POINT ENERGY     -1119.595767207764

DIPOLE MOMENT
-------------
                                X             Y             Z
Electronic contribution:     -0.00266       0.00016      -3.25657
Nuclear contribution   :      0.00000       0.00000       1.43702
                        -----------------------------------------
Total Dipole Moment    :     -0.00266       0.00016      -1.81954
                        -----------------------------------------
Magnitude (a.u.)       :      1.81955
Magnitude (Debye)      :      4.62492

Rotational constants in cm-1:     0.000000     0.528468     0.528468
Rotational constants in MHz :     0.000000 15843.074100 15843.074100

                             ****ORCA TERMINATED NORMALLY****
TOTAL RUN TIME: 0 days 0 hours 13 minutes 15 seconds 657 msec
