                         Program Version 4.2.0 -  RELEASE  -
|  1> #
|  2> # 24_CrS wb97m-v/aug-cc-pvtz
|  3> #
|  4> ! wb97m-v aug-cc-pvtz def2/jk grid4 nofinalgrid
|  5>
|  6> *xyz 0 5
|  7>   Cr  0.00000000000000      0.00000000000000     -0.04064132858643
|  8>   S   0.00000000000000      0.00000000000000      2.04064132858643
|  9> *
| 10>
| 11> %pal
| 12> nprocs 24
| 13> end
| 14>
| 15>
| 16>                          ****END OF INPUT****

CARTESIAN COORDINATES (ANGSTROEM)
---------------------------------
  Cr     0.000000    0.000000   -0.040641
  S      0.000000    0.000000    2.040641

 Total Charge           Charge          ....    0
 Multiplicity           Mult            ....    5
 Number of Electrons    NEL             ....   40
 Basis Dimension        Dim             ....  143

ORBITAL ENERGIES
----------------
                 SPIN UP ORBITALS
  NO   OCC          E(Eh)            E(eV)
   0   1.0000    -216.168290     -5882.2382
   1   1.0000     -89.159593     -2426.1559
   2   1.0000     -24.921734      -678.1549
   3   1.0000     -21.126526      -574.8820
   4   1.0000     -21.125237      -574.8469
   5   1.0000     -21.122668      -574.7770
   6   1.0000      -8.073322      -219.6863
   7   1.0000      -5.979368      -162.7069
   8   1.0000      -5.979132      -162.7005
   9   1.0000      -5.977762      -162.6632
  10   1.0000      -3.069576       -83.5274
  11   1.0000      -2.010495       -54.7083
  12   1.0000      -2.007107       -54.6162
  13   1.0000      -2.002566       -54.4926
  14   1.0000      -0.732649       -19.9364
  15   1.0000      -0.396851       -10.7989
  16   1.0000      -0.394300       -10.7294
  17   1.0000      -0.365322        -9.9409
  18   1.0000      -0.364277        -9.9125
  19   1.0000      -0.354494        -9.6463
  20   1.0000      -0.309004        -8.4084
  21   1.0000      -0.285863        -7.7787
  22   0.0000      -0.048195        -1.3114
  23   0.0000      -0.041260        -1.1227
  24   0.0000       0.007339         0.1997
  25   0.0000       0.010412         0.2833
  26   0.0000       0.016817         0.4576

                 SPIN DOWN ORBITALS
  NO   OCC          E(Eh)            E(eV)
   0   1.0000    -216.167014     -5882.2035
   1   1.0000     -89.163378     -2426.2589
   2   1.0000     -24.852398      -676.2681
   3   1.0000     -21.074955      -573.4787
   4   1.0000     -21.071111      -573.3741
   5   1.0000     -21.062125      -573.1296
   6   1.0000      -8.077056      -219.7879
   7   1.0000      -5.991452      -163.0357
   8   1.0000      -5.983263      -162.8129
   9   1.0000      -5.979995      -162.7239
  10   1.0000      -2.905393       -79.0598
  11   1.0000      -1.837748       -50.0077
  12   1.0000      -1.825139       -49.6645
  13   1.0000      -1.806508       -49.1576
  14   1.0000      -0.753755       -20.5107
  15   1.0000      -0.358659        -9.7596
  16   1.0000      -0.349648        -9.5144
  17   1.0000      -0.329130        -8.9561
  18   0.0000      -0.102074        -2.7776
  19   0.0000      -0.055201        -1.5021
  20   0.0000      -0.044780        -1.2185
  21   0.0000      -0.010497        -0.2856
  22   0.0000      -0.000256        -0.0070

MULLIKEN ATOMIC CHARGES AND SPIN POPULATIONS
--------------------------------------------
   0 Cr:    0.252577    4.580381
   1 S :   -0.252577   -0.580381
Sum of atomic charges         :   -0.0000000

LOEWDIN ATOMIC CHARGES AND SPIN POPULATIONS
-------------------------------------------
   0 Cr:    0.043155    4.375727
   1 S :   -0.043155   -0.375727

  Mayer bond orders larger than 0.100000
B(  0-Cr,  1-S ) :   2.0416

FINAL SINGLE POINT ENERGY     -1442.585661090629

DIPOLE MOMENT
-------------
                                X             Y             Z
Electronic contribution:      0.00001      -0.00000      -5.19627
Nuclear contribution   :      0.00000       0.00000       2.92710
                        -----------------------------------------
Total Dipole Moment    :      0.00001      -0.00000      -2.26917
                        -----------------------------------------
Magnitude (a.u.)       :      2.26917
Magnitude (Debye)      :      5.76778

Rotational constants in cm-1:     0.000000     0.196226     0.196226
Rotational constants in MHz :     0.000000  5882.717555  5882.717555

                             ****ORCA TERMINATED NORMALLY****
TOTAL RUN TIME: 0 days 0 hours 8 minutes 11 seconds 512 msec
