                         Program Version 4.2.0 -  RELEASE  -
|  1> #
|  2> # 28_MnBr wb97m-v/aug-cc-pvtz
|  3> #
|  4> ! wb97m-v aug-cc-pvtz def2/jk grid4 nofinalgrid
|  5>
|  6> *xyz 0 7
|  7>   Mn  0.00000000000000      0.00000000000000     -0.18897622296313
|  8>   Br  0.00000000000000      0.00000000000000      2.18897622296313
|  9> *
| 10>
| 11> %pal
| 12> nprocs 24
| 13> end
| 14>
| 15>
| 16>                          ****END OF INPUT****

CARTESIAN COORDINATES (ANGSTROEM)
---------------------------------
  Mn     0.000000    0.000000   -0.188976
  Br     0.000000    0.000000    2.188976

 Total Charge           Charge          ....    0
 Multiplicity           Mult            ....    7
 Number of Electrons    NEL             ....   60
 Basis Dimension        Dim             ....  152

ORBITAL ENERGIES
----------------
                 SPIN UP ORBITALS
  NO   OCC          E(Eh)            E(eV)
   0   1.0000    -483.485709    -13156.3150
   1   1.0000    -236.027909     -6422.6459
   2   1.0000     -62.790464     -1708.6154
   3   1.0000     -56.476363     -1536.8000
   4   1.0000     -56.475481     -1536.7760
   5   1.0000     -56.475481     -1536.7760
   6   1.0000     -27.657010      -752.5855
   7   1.0000     -23.638563      -643.2380
   8   1.0000     -23.638563      -643.2380
   9   1.0000     -23.636821      -643.1906
  10   1.0000      -8.869270      -241.3451
  11   1.0000      -6.649207      -180.9341
  12   1.0000      -6.646154      -180.8510
  13   1.0000      -6.646154      -180.8510
  14   1.0000      -3.492307       -95.0305
  15   1.0000      -2.732032       -74.3424
  16   1.0000      -2.731045       -74.3155
  17   1.0000      -2.731045       -74.3155
  18   1.0000      -2.728663       -74.2507
  19   1.0000      -2.728628       -74.2497
  20   1.0000      -2.340450       -63.6869
  21   1.0000      -2.340450       -63.6869
  22   1.0000      -2.334871       -63.5351
  23   1.0000      -0.865254       -23.5448
  24   1.0000      -0.527988       -14.3673
  25   1.0000      -0.520434       -14.1617
  26   1.0000      -0.520434       -14.1617
  27   1.0000      -0.519520       -14.1369
  28   1.0000      -0.519517       -14.1368
  29   1.0000      -0.421616       -11.4728
  30   1.0000      -0.380047       -10.3416
  31   1.0000      -0.380046       -10.3416
  32   1.0000      -0.283246        -7.7075
  33   0.0000      -0.002075        -0.0565
  34   0.0000      -0.002075        -0.0565
  35   0.0000       0.008783         0.2390
  36   0.0000       0.014883         0.4050
  37   0.0000       0.039450         1.0735

                 SPIN DOWN ORBITALS
  NO   OCC          E(Eh)            E(eV)
   0   1.0000    -483.485153    -13156.2999
   1   1.0000    -236.024740     -6422.5597
   2   1.0000     -62.790249     -1708.6095
   3   1.0000     -56.475569     -1536.7783
   4   1.0000     -56.475063     -1536.7646
   5   1.0000     -56.475063     -1536.7646
   6   1.0000     -27.558909      -749.9160
   7   1.0000     -23.560017      -641.1006
   8   1.0000     -23.560017      -641.1006
   9   1.0000     -23.558562      -641.0611
  10   1.0000      -8.868516      -241.3246
  11   1.0000      -6.647943      -180.8997
  12   1.0000      -6.645420      -180.8311
  13   1.0000      -6.645420      -180.8311
  14   1.0000      -3.275699       -89.1363
  15   1.0000      -2.730872       -74.3108
  16   1.0000      -2.730001       -74.2871
  17   1.0000      -2.730001       -74.2871
  18   1.0000      -2.727928       -74.2307
  19   1.0000      -2.727893       -74.2297
  20   1.0000      -2.101521       -57.1853
  21   1.0000      -2.101521       -57.1853
  22   1.0000      -2.096158       -57.0393
  23   1.0000      -0.856122       -23.2963
  24   1.0000      -0.423087       -11.5128
  25   1.0000      -0.384568       -10.4646
  26   1.0000      -0.384568       -10.4646
  27   0.0000      -0.202880        -5.5206
  28   0.0000      -0.135607        -3.6901
  29   0.0000      -0.135377        -3.6838
  30   0.0000      -0.092840        -2.5263
  31   0.0000      -0.034949        -0.9510

MULLIKEN ATOMIC CHARGES AND SPIN POPULATIONS
--------------------------------------------
   0 Mn:    0.396786    5.847471
   1 Br:   -0.396786    0.152529
Sum of atomic charges         :    0.0000000

LOEWDIN ATOMIC CHARGES AND SPIN POPULATIONS
-------------------------------------------
   0 Mn:    0.025584    5.734130
   1 Br:   -0.025584    0.265870

  Mayer bond orders larger than 0.100000
B(  0-Mn,  1-Br) :   1.0039

FINAL SINGLE POINT ENERGY     -3725.049165706177

DIPOLE MOMENT
-------------
                                X             Y             Z
Electronic contribution:     -0.00000       0.00000       1.48146
Nuclear contribution   :      0.00000       0.00000      -2.48612
                        -----------------------------------------
Total Dipole Moment    :     -0.00000       0.00000      -1.00466
                        -----------------------------------------
Magnitude (a.u.)       :      1.00466
Magnitude (Debye)      :      2.55363

Rotational constants in cm-1:     0.000000     0.091574     0.091574
Rotational constants in MHz :     0.000000  2745.330169  2745.330169

                             ****ORCA TERMINATED NORMALLY****
TOTAL RUN TIME: 0 days 0 hours 9 minutes 15 seconds 132 msec
