                         Program Version 4.2.0 -  RELEASE  -
|  1> #
|  2> # 30_MnS wb97m-v/aug-cc-pvtz
|  3> #
|  4> ! wb97m-v aug-cc-pvtz def2/jk grid4 nofinalgrid
|  5>
|  6> *xyz 0 6
|  7>   Mn  0.00000000000000      0.00000000000000     -0.02260858554296
|  8>   S   0.00000000000000      0.00000000000000      2.02260858554296
|  9> *
| 10>
| 11> %pal
| 12> nprocs 24
| 13> end
| 14>
| 15>
| 16>                          ****END OF INPUT****

CARTESIAN COORDINATES (ANGSTROEM)
---------------------------------
  Mn     0.000000    0.000000   -0.022609
  S      0.000000    0.000000    2.022609

 Total Charge           Charge          ....    0
 Multiplicity           Mult            ....    6
 Number of Electrons    NEL             ....   41
 Basis Dimension        Dim             ....  143

ORBITAL ENERGIES
----------------
                 SPIN UP ORBITALS
  NO   OCC          E(Eh)            E(eV)
   0   1.0000    -235.996997     -6421.8048
   1   1.0000     -89.145772     -2425.7798
   2   1.0000     -27.619151      -751.5553
   3   1.0000     -23.602855      -642.2663
   4   1.0000     -23.602855      -642.2663
   5   1.0000     -23.598163      -642.1387
   6   1.0000      -8.059601      -219.3129
   7   1.0000      -5.967343      -162.3797
   8   1.0000      -5.965997      -162.3430
   9   1.0000      -5.965997      -162.3430
  10   1.0000      -3.450407       -93.8903
  11   1.0000      -2.299248       -62.5657
  12   1.0000      -2.299248       -62.5657
  13   1.0000      -2.294082       -62.4251
  14   1.0000      -0.744069       -20.2471
  15   1.0000      -0.489063       -13.3081
  16   1.0000      -0.489063       -13.3081
  17   1.0000      -0.482285       -13.1236
  18   1.0000      -0.482284       -13.1236
  19   1.0000      -0.479907       -13.0589
  20   1.0000      -0.340218        -9.2578
  21   1.0000      -0.301959        -8.2167
  22   1.0000      -0.301959        -8.2167
  23   0.0000      -0.062923        -1.7122
  24   0.0000       0.003562         0.0969
  25   0.0000       0.003562         0.0969
  26   0.0000       0.009981         0.2716
  27   0.0000       0.019872         0.5407

                 SPIN DOWN ORBITALS
  NO   OCC          E(Eh)            E(eV)
   0   1.0000    -235.994794     -6421.7448
   1   1.0000     -89.145150     -2425.7629
   2   1.0000     -27.529830      -749.1248
   3   1.0000     -23.530974      -640.3104
   4   1.0000     -23.529453      -640.2690
   5   1.0000     -23.529453      -640.2690
   6   1.0000      -8.058995      -219.2964
   7   1.0000      -5.968986      -162.4244
   8   1.0000      -5.963659      -162.2794
   9   1.0000      -5.963659      -162.2794
  10   1.0000      -3.253534       -88.5332
  11   1.0000      -2.084130       -56.7121
  12   1.0000      -2.078277       -56.5528
  13   1.0000      -2.078277       -56.5528
  14   1.0000      -0.733325       -19.9548
  15   1.0000      -0.360771        -9.8171
  16   1.0000      -0.321830        -8.7574
  17   1.0000      -0.321830        -8.7574
  18   0.0000      -0.099746        -2.7142
  19   0.0000      -0.040064        -1.0902
  20   0.0000      -0.040064        -1.0902
  21   0.0000      -0.015281        -0.4158
  22   0.0000       0.003190         0.0868

MULLIKEN ATOMIC CHARGES AND SPIN POPULATIONS
--------------------------------------------
   0 Mn:    0.344675    4.748221
   1 S :   -0.344675    0.251779
Sum of atomic charges         :   -0.0000000

LOEWDIN ATOMIC CHARGES AND SPIN POPULATIONS
-------------------------------------------
   0 Mn:    0.192879    4.740865
   1 S :   -0.192879    0.259135

  Mayer bond orders larger than 0.100000
B(  0-Mn,  1-S ) :   2.2271

FINAL SINGLE POINT ENERGY     -1549.136786411917

DIPOLE MOMENT
-------------
                                X             Y             Z
Electronic contribution:      0.00000       0.00000      -6.08383
Nuclear contribution   :      0.00000       0.00000       3.44465
                        -----------------------------------------
Total Dipole Moment    :      0.00000       0.00000      -2.63919
                        -----------------------------------------
Magnitude (a.u.)       :      2.63919
Magnitude (Debye)      :      6.70828

Rotational constants in cm-1:     0.000000     0.199061     0.199061
Rotational constants in MHz :     0.000000  5967.684062  5967.684062

                             ****ORCA TERMINATED NORMALLY****
TOTAL RUN TIME: 0 days 0 hours 4 minutes 38 seconds 57 msec
