                         Program Version 4.2.0 -  RELEASE  -
|  1> #
|  2> # 31_FeH wb97m-v/aug-cc-pvtz
|  3> #
|  4> ! wb97m-v aug-cc-pvtz def2/jk grid4 nofinalgrid
|  5>
|  6> *xyz 0 4
|  7>   Fe  0.00000000000000      0.00000000000000      0.22838748047068
|  8>   H   0.00000000000000      0.00000000000000      1.77161251952932
|  9> *
| 10>
| 11> %pal
| 12> nprocs 24
| 13> end
| 14>
| 15>
| 16>                          ****END OF INPUT****

CARTESIAN COORDINATES (ANGSTROEM)
---------------------------------
  Fe     0.000000    0.000000    0.228387
  H      0.000000    0.000000    1.771613

 Total Charge           Charge          ....    0
 Multiplicity           Mult            ....    4
 Number of Electrons    NEL             ....   27
 Basis Dimension        Dim             ....  116

ORBITAL ENERGIES
----------------
                 SPIN UP ORBITALS
  NO   OCC          E(Eh)            E(eV)
   0   1.0000    -256.493649     -6979.5470
   1   1.0000     -30.196641      -821.6924
   2   1.0000     -25.972081      -706.7362
   3   1.0000     -25.972081      -706.7362
   4   1.0000     -25.942747      -705.9380
   5   1.0000      -3.581017       -97.4444
   6   1.0000      -2.354649       -64.0733
   7   1.0000      -2.354649       -64.0733
   8   1.0000      -2.300051       -62.5876
   9   1.0000      -0.394226       -10.7274
  10   1.0000      -0.385443       -10.4884
  11   1.0000      -0.385443       -10.4884
  12   1.0000      -0.339346        -9.2341
  13   1.0000      -0.339346        -9.2341
  14   1.0000      -0.301353        -8.2002
  15   0.0000      -0.017121        -0.4659
  16   0.0000       0.008271         0.2251
  17   0.0000       0.008271         0.2251
  18   0.0000       0.018268         0.4971
  19   0.0000       0.032046         0.8720

                 SPIN DOWN ORBITALS
  NO   OCC          E(Eh)            E(eV)
   0   1.0000    -256.492269     -6979.5095
   1   1.0000     -30.135176      -820.0198
   2   1.0000     -25.916183      -705.2152
   3   1.0000     -25.916183      -705.2152
   4   1.0000     -25.909141      -705.0236
   5   1.0000      -3.453060       -93.9625
   6   1.0000      -2.197689       -59.8022
   7   1.0000      -2.195009       -59.7292
   8   1.0000      -2.195009       -59.7292
   9   1.0000      -0.361561        -9.8386
  10   1.0000      -0.273168        -7.4333
  11   1.0000      -0.273168        -7.4333
  12   0.0000      -0.042373        -1.1530
  13   0.0000      -0.009069        -0.2468
  14   0.0000      -0.009068        -0.2468
  15   0.0000      -0.000624        -0.0170
  16   0.0000       0.013380         0.3641

MULLIKEN ATOMIC CHARGES AND SPIN POPULATIONS
--------------------------------------------
   0 Fe:    0.072895    3.026601
   1 H :   -0.072895   -0.026601
Sum of atomic charges         :   -0.0000000

LOEWDIN ATOMIC CHARGES AND SPIN POPULATIONS
-------------------------------------------
   0 Fe:    0.684487    2.971966
   1 H :   -0.684487    0.028034

  Mayer bond orders larger than 0.100000
B(  0-Fe,  1-H ) :   1.0344

FINAL SINGLE POINT ENERGY     -1264.173570191482

DIPOLE MOMENT
-------------
                                X             Y             Z
Electronic contribution:     -0.00000       0.00000      -2.74692
Nuclear contribution   :      0.00000       0.00000       1.52035
                        -----------------------------------------
Total Dipole Moment    :     -0.00000       0.00000      -1.22657
                        -----------------------------------------
Magnitude (a.u.)       :      1.22657
Magnitude (Debye)      :      3.11770

Rotational constants in cm-1:     0.000000     7.149016     7.149016
Rotational constants in MHz :     0.000000 214322.097628 214322.097628

                             ****ORCA TERMINATED NORMALLY****
TOTAL RUN TIME: 0 days 0 hours 2 minutes 41 seconds 727 msec
