                         Program Version 4.2.0 -  RELEASE  -
|  1> #
|  2> # 32_FeF wb97m-v/aug-cc-pvtz
|  3> #
|  4> ! wb97m-v aug-cc-pvtz def2/jk grid4 nofinalgrid slowconv
|  5>
|  6> *xyz 0 6
|  7>   Fe  0.00000000000000      0.00000000000000      0.10964273788681
|  8>   F   0.00000000000000      0.00000000000000      1.89035726211319
|  9> *
| 10>
| 11> %pal
| 12> nprocs 24
| 13> end
| 14>
| 15>
| 16>                          ****END OF INPUT****

CARTESIAN COORDINATES (ANGSTROEM)
---------------------------------
  Fe     0.000000    0.000000    0.109643
  F      0.000000    0.000000    1.890357

 Total Charge           Charge          ....    0
 Multiplicity           Mult            ....    6
 Number of Electrons    NEL             ....   35
 Basis Dimension        Dim             ....  139

ORBITAL ENERGIES
----------------
                 SPIN UP ORBITALS
  NO   OCC          E(Eh)            E(eV)
   0   1.0000    -256.642893     -6983.6082
   1   1.0000     -30.373872      -826.5151
   2   1.0000     -26.153357      -711.6690
   3   1.0000     -26.126291      -710.9325
   4   1.0000     -26.126291      -710.9325
   5   1.0000     -24.854460      -676.3242
   6   1.0000      -3.764759      -102.4443
   7   1.0000      -2.551856       -69.4395
   8   1.0000      -2.501697       -68.0746
   9   1.0000      -2.501697       -68.0746
  10   1.0000      -1.252809       -34.0907
  11   1.0000      -0.594557       -16.1787
  12   1.0000      -0.560800       -15.2601
  13   1.0000      -0.560800       -15.2601
  14   1.0000      -0.516484       -14.0543
  15   1.0000      -0.490253       -13.3405
  16   1.0000      -0.469148       -12.7662
  17   1.0000      -0.469147       -12.7661
  18   1.0000      -0.466807       -12.7025
  19   1.0000      -0.290865        -7.9148
  20   0.0000       0.003480         0.0947
  21   0.0000       0.003480         0.0947
  22   0.0000       0.011640         0.3167
  23   0.0000       0.018047         0.4911
  24   0.0000       0.052685         1.4336

                 SPIN DOWN ORBITALS
  NO   OCC          E(Eh)            E(eV)
   0   1.0000    -256.639682     -6983.5208
   1   1.0000     -30.283267      -824.0496
   2   1.0000     -26.069913      -709.3984
   3   1.0000     -26.060188      -709.1338
   4   1.0000     -26.060188      -709.1338
   5   1.0000     -24.847688      -676.1400
   6   1.0000      -3.580449       -97.4290
   7   1.0000      -2.317850       -63.0719
   8   1.0000      -2.317849       -63.0719
   9   1.0000      -2.314982       -62.9938
  10   1.0000      -1.236698       -33.6523
  11   1.0000      -0.521291       -14.1850
  12   1.0000      -0.488088       -13.2816
  13   1.0000      -0.488088       -13.2815
  14   1.0000      -0.394442       -10.7333
  15   0.0000      -0.350426        -9.5356
  16   0.0000      -0.285565        -7.7706
  17   0.0000      -0.194903        -5.3036
  18   0.0000      -0.194859        -5.3024
  19   0.0000      -0.108288        -2.9467

MULLIKEN ATOMIC CHARGES AND SPIN POPULATIONS
--------------------------------------------
   0 Fe:    0.571338    4.833504
   1 F :   -0.571338    0.166496
Sum of atomic charges         :    0.0000000

LOEWDIN ATOMIC CHARGES AND SPIN POPULATIONS
-------------------------------------------
   0 Fe:    0.425331    4.729774
   1 F :   -0.425331    0.270226

  Mayer bond orders larger than 0.100000
B(  0-Fe,  1-F ) :   0.7477

FINAL SINGLE POINT ENERGY     -1363.518665888773

DIPOLE MOMENT
-------------
                                X             Y             Z
Electronic contribution:      0.00000       0.00000      -1.19055
Nuclear contribution   :      0.00000       0.00000       0.39123
                        -----------------------------------------
Total Dipole Moment    :      0.00000       0.00000      -0.79932
                        -----------------------------------------
Magnitude (a.u.)       :      0.79932
Magnitude (Debye)      :      2.03172

Rotational constants in cm-1:     0.000000     0.375023     0.375023
Rotational constants in MHz :     0.000000 11242.894653 11242.894653

                             ****ORCA TERMINATED NORMALLY****
TOTAL RUN TIME: 0 days 0 hours 5 minutes 2 seconds 476 msec
