                         Program Version 4.2.0 -  RELEASE  -
|  1> #
|  2> # 34_FeBr wb97m-v/aug-cc-pvtz
|  3> #
|  4> ! wb97m-v aug-cc-pvtz def2/jk grid4 nofinalgrid
|  5>
|  6> *xyz 0 6
|  7>   Fe  0.00000000000000      0.00000000000000     -0.16252996889250
|  8>   Br  0.00000000000000      0.00000000000000      2.16252996889250
|  9> *
| 10>
| 11> %pal
| 12> nprocs 24
| 13> end
| 14>
| 15>
| 16>                          ****END OF INPUT****

CARTESIAN COORDINATES (ANGSTROEM)
---------------------------------
  Fe     0.000000    0.000000   -0.162530
  Br     0.000000    0.000000    2.162530

 Total Charge           Charge          ....    0
 Multiplicity           Mult            ....    6
 Number of Electrons    NEL             ....   61
 Basis Dimension        Dim             ....  152

ORBITAL ENERGIES
----------------
                 SPIN UP ORBITALS
  NO   OCC          E(Eh)            E(eV)
   0   1.0000    -483.494861    -13156.5640
   1   1.0000    -256.662788     -6984.1495
   2   1.0000     -62.799580     -1708.8634
   3   1.0000     -56.485542     -1537.0497
   4   1.0000     -56.484619     -1537.0246
   5   1.0000     -56.484619     -1537.0246
   6   1.0000     -30.393878      -827.0595
   7   1.0000     -26.174483      -712.2439
   8   1.0000     -26.145692      -711.4604
   9   1.0000     -26.145691      -711.4604
  10   1.0000      -8.878493      -241.5961
  11   1.0000      -6.658545      -181.1882
  12   1.0000      -6.655346      -181.1012
  13   1.0000      -6.655346      -181.1012
  14   1.0000      -3.783501      -102.9543
  15   1.0000      -2.741394       -74.5971
  16   1.0000      -2.740326       -74.5681
  17   1.0000      -2.740326       -74.5681
  18   1.0000      -2.737830       -74.5001
  19   1.0000      -2.737793       -74.4991
  20   1.0000      -2.572156       -69.9919
  21   1.0000      -2.519003       -68.5455
  22   1.0000      -2.519002       -68.5455
  23   1.0000      -0.876018       -23.8377
  24   1.0000      -0.571857       -15.5610
  25   1.0000      -0.559416       -15.2225
  26   1.0000      -0.559416       -15.2225
  27   1.0000      -0.532349       -14.4860
  28   1.0000      -0.505897       -13.7661
  29   1.0000      -0.437137       -11.8951
  30   1.0000      -0.389454       -10.5976
  31   1.0000      -0.389453       -10.5976
  32   1.0000      -0.287095        -7.8122
  33   0.0000       0.002046         0.0557
  34   0.0000       0.002054         0.0559
  35   0.0000       0.010415         0.2834
  36   0.0000       0.015492         0.4216
  37   0.0000       0.044180         1.2022

                 SPIN DOWN ORBITALS
  NO   OCC          E(Eh)            E(eV)
   0   1.0000    -483.494181    -13156.5455
   1   1.0000    -256.659699     -6984.0655
   2   1.0000     -62.799327     -1708.8566
   3   1.0000     -56.484623     -1537.0247
   4   1.0000     -56.484089     -1537.0102
   5   1.0000     -56.484089     -1537.0102
   6   1.0000     -30.303519      -824.6007
   7   1.0000     -26.091199      -709.9776
   8   1.0000     -26.079859      -709.6691
   9   1.0000     -26.079859      -709.6691
  10   1.0000      -8.877578      -241.5712
  11   1.0000      -6.657068      -181.1480
  12   1.0000      -6.654423      -181.0761
  13   1.0000      -6.654423      -181.0761
  14   1.0000      -3.599091       -97.9363
  15   1.0000      -2.740027       -74.5599
  16   1.0000      -2.739073       -74.5340
  17   1.0000      -2.739073       -74.5340
  18   1.0000      -2.736898       -74.4748
  19   1.0000      -2.736859       -74.4737
  20   1.0000      -2.335056       -63.5401
  21   1.0000      -2.335056       -63.5401
  22   1.0000      -2.334217       -63.5173
  23   1.0000      -0.865452       -23.5501
  24   1.0000      -0.437947       -11.9171
  25   1.0000      -0.410435       -11.1685
  26   1.0000      -0.392500       -10.6805
  27   1.0000      -0.392499       -10.6804
  28   0.0000      -0.216970        -5.9041
  29   0.0000      -0.152359        -4.1459
  30   0.0000      -0.144145        -3.9224
  31   0.0000      -0.128955        -3.5090
  32   0.0000      -0.070019        -1.9053

MULLIKEN ATOMIC CHARGES AND SPIN POPULATIONS
--------------------------------------------
   0 Fe:    0.351406    4.779658
   1 Br:   -0.351406    0.220342
Sum of atomic charges         :   -0.0000000

LOEWDIN ATOMIC CHARGES AND SPIN POPULATIONS
-------------------------------------------
   0 Fe:   -0.006892    4.705981
   1 Br:    0.006892    0.294019

  Mayer bond orders larger than 0.100000
B(  0-Fe,  1-Br) :   1.0741

FINAL SINGLE POINT ENERGY     -3837.731088704967

DIPOLE MOMENT
-------------
                                X             Y             Z
Electronic contribution:     -0.00005      -0.00001       3.15525
Nuclear contribution   :      0.00000       0.00000      -3.96973
                        -----------------------------------------
Total Dipole Moment    :     -0.00005      -0.00001      -0.81447
                        -----------------------------------------
Magnitude (a.u.)       :      0.81447
Magnitude (Debye)      :      2.07023

Rotational constants in cm-1:     0.000000     0.094863     0.094863
Rotational constants in MHz :     0.000000  2843.931812  2843.931812

                             ****ORCA TERMINATED NORMALLY****
TOTAL RUN TIME: 0 days 0 hours 11 minutes 36 seconds 957 msec
