                         Program Version 4.2.0 -  RELEASE  -
|  1> #
|  2> # 38_CoF wb97m-v/aug-cc-pvtz
|  3> #
|  4> ! wb97m-v aug-cc-pvtz def2/jk grid4 nofinalgrid
|  5>
|  6> *xyz 0 3
|  7>   Co  0.00000000000000      0.00000000000000      0.12338928235446
|  8>   F   0.00000000000000      0.00000000000000      1.87661071764554
|  9> *
| 10>
| 11> %pal
| 12> nprocs 24
| 13> end
| 14>
| 15>
| 16>                          ****END OF INPUT****

CARTESIAN COORDINATES (ANGSTROEM)
---------------------------------
  Co     0.000000    0.000000    0.123389
  F      0.000000    0.000000    1.876611

 Total Charge           Charge          ....    0
 Multiplicity           Mult            ....    3
 Number of Electrons    NEL             ....   36
 Basis Dimension        Dim             ....  139

ORBITAL ENERGIES
----------------
                 SPIN UP ORBITALS
  NO   OCC          E(Eh)            E(eV)
   0   1.0000    -278.018414     -7565.2657
   1   1.0000     -33.079186      -900.1304
   2   1.0000     -28.629268      -779.0420
   3   1.0000     -28.622317      -778.8528
   4   1.0000     -28.617732      -778.7281
   5   1.0000     -24.809673      -675.1055
   6   1.0000      -3.916819      -106.5821
   7   1.0000      -2.585620       -70.3583
   8   1.0000      -2.582229       -70.2660
   9   1.0000      -2.566289       -69.8323
  10   1.0000      -1.201122       -32.6842
  11   1.0000      -0.508584       -13.8393
  12   1.0000      -0.484780       -13.1915
  13   1.0000      -0.471570       -12.8321
  14   1.0000      -0.427157       -11.6235
  15   1.0000      -0.403641       -10.9836
  16   1.0000      -0.400506       -10.8983
  17   1.0000      -0.376183       -10.2365
  18   1.0000      -0.367517       -10.0006
  19   0.0000      -0.055167        -1.5012
  20   0.0000       0.008343         0.2270
  21   0.0000       0.008565         0.2331
  22   0.0000       0.018379         0.5001
  23   0.0000       0.025218         0.6862

                 SPIN DOWN ORBITALS
  NO   OCC          E(Eh)            E(eV)
   0   1.0000    -278.017654     -7565.2450
   1   1.0000     -33.025313      -898.6644
   2   1.0000     -28.584754      -777.8307
   3   1.0000     -28.579061      -777.6758
   4   1.0000     -28.578414      -777.6582
   5   1.0000     -24.807857      -675.0561
   6   1.0000      -3.812138      -103.7336
   7   1.0000      -2.466441       -67.1153
   8   1.0000      -2.462429       -67.0061
   9   1.0000      -2.459931       -66.9381
  10   1.0000      -1.196674       -32.5631
  11   1.0000      -0.485298       -13.2056
  12   1.0000      -0.460853       -12.5405
  13   1.0000      -0.446654       -12.1541
  14   1.0000      -0.354204        -9.6384
  15   1.0000      -0.334424        -9.1001
  16   1.0000      -0.309069        -8.4102
  17   0.0000      -0.029067        -0.7909
  18   0.0000       0.020733         0.5642
  19   0.0000       0.022016         0.5991
  20   0.0000       0.029304         0.7974
  21   0.0000       0.030906         0.8410

MULLIKEN ATOMIC CHARGES AND SPIN POPULATIONS
--------------------------------------------
   0 Co:    0.641766    1.948854
   1 F :   -0.641766    0.051146
Sum of atomic charges         :   -0.0000000

LOEWDIN ATOMIC CHARGES AND SPIN POPULATIONS
-------------------------------------------
   0 Co:    0.461231    1.956062
   1 F :   -0.461231    0.043938

  Mayer bond orders larger than 0.100000
B(  0-Co,  1-F ) :   0.7078

FINAL SINGLE POINT ENERGY     -1482.580127584854

DIPOLE MOMENT
-------------
                                X             Y             Z
Electronic contribution:     -0.00000      -0.00000      -2.72868
Nuclear contribution   :      0.00000       0.00000       0.74078
                        -----------------------------------------
Total Dipole Moment    :     -0.00000      -0.00000      -1.98789
                        -----------------------------------------
Magnitude (a.u.)       :      1.98789
Magnitude (Debye)      :      5.05283

Rotational constants in cm-1:     0.000000     0.381744     0.381744
Rotational constants in MHz :     0.000000 11444.406260 11444.406260

                             ****ORCA TERMINATED NORMALLY****
TOTAL RUN TIME: 0 days 0 hours 10 minutes 0 seconds 71 msec
