                         Program Version 4.2.0 -  RELEASE  -
|  1> #
|  2> # 41_CoO wb97m-v/aug-cc-pvtz
|  3> #
|  4> ! wb97m-v aug-cc-pvtz def2/jk grid4 nofinalgrid
|  5>
|  6> *xyz 0 4
|  7>   Co  0.00000000000000      0.00000000000000      0.18722579130779
|  8>   O   0.00000000000000      0.00000000000000      1.81277420869221
|  9> *
| 10>
| 11> %pal
| 12> nprocs 24
| 13> end
| 14>
| 15>
| 16>                          ****END OF INPUT****

CARTESIAN COORDINATES (ANGSTROEM)
---------------------------------
  Co     0.000000    0.000000    0.187226
  O      0.000000    0.000000    1.812774

 Total Charge           Charge          ....    0
 Multiplicity           Mult            ....    4
 Number of Electrons    NEL             ....   35
 Basis Dimension        Dim             ....  139

ORBITAL ENERGIES
----------------
                 SPIN UP ORBITALS
  NO   OCC          E(Eh)            E(eV)
   0   1.0000    -278.047561     -7566.0588
   1   1.0000     -33.113017      -901.0510
   2   1.0000     -28.689141      -780.6712
   3   1.0000     -28.640183      -779.3390
   4   1.0000     -28.640183      -779.3390
   5   1.0000     -19.299788      -525.1739
   6   1.0000      -3.943244      -107.3011
   7   1.0000      -2.669103       -72.6300
   8   1.0000      -2.569643       -69.9235
   9   1.0000      -2.569643       -69.9235
  10   1.0000      -0.999539       -27.1988
  11   1.0000      -0.504791       -13.7360
  12   1.0000      -0.495050       -13.4710
  13   1.0000      -0.495050       -13.4710
  14   1.0000      -0.398944       -10.8558
  15   1.0000      -0.398944       -10.8558
  16   1.0000      -0.353002        -9.6057
  17   1.0000      -0.352484        -9.5916
  18   1.0000      -0.352484        -9.5916
  19   0.0000      -0.054141        -1.4732
  20   0.0000       0.011648         0.3170
  21   0.0000       0.011648         0.3170
  22   0.0000       0.019031         0.5179
  23   0.0000       0.026466         0.7202

                 SPIN DOWN ORBITALS
  NO   OCC          E(Eh)            E(eV)
   0   1.0000    -278.045639     -7566.0065
   1   1.0000     -33.056315      -899.5081
   2   1.0000     -28.626737      -778.9731
   3   1.0000     -28.604238      -778.3609
   4   1.0000     -28.604238      -778.3609
   5   1.0000     -19.283158      -524.7214
   6   1.0000      -3.835137      -104.3594
   7   1.0000      -2.496401       -67.9305
   8   1.0000      -2.480829       -67.5068
   9   1.0000      -2.480829       -67.5068
  10   1.0000      -0.956318       -26.0227
  11   1.0000      -0.408192       -11.1075
  12   1.0000      -0.366171        -9.9640
  13   1.0000      -0.366171        -9.9640
  14   1.0000      -0.336486        -9.1562
  15   1.0000      -0.336485        -9.1562
  16   0.0000      -0.083954        -2.2845
  17   0.0000      -0.022332        -0.6077
  18   0.0000      -0.022332        -0.6077
  19   0.0000      -0.005754        -0.1566
  20   0.0000       0.014311         0.3894

MULLIKEN ATOMIC CHARGES AND SPIN POPULATIONS
--------------------------------------------
   0 Co:    0.662777    2.297805
   1 O :   -0.662777    0.702195
Sum of atomic charges         :   -0.0000000

LOEWDIN ATOMIC CHARGES AND SPIN POPULATIONS
-------------------------------------------
   0 Co:    0.574197    2.332208
   1 O :   -0.574197    0.667792

  Mayer bond orders larger than 0.100000
B(  0-Co,  1-O ) :   1.9597

FINAL SINGLE POINT ENERGY     -1457.871494266006

DIPOLE MOMENT
-------------
                                X             Y             Z
Electronic contribution:     -0.00000      -0.00000      -3.97708
Nuclear contribution   :      0.00000       0.00000       1.61802
                        -----------------------------------------
Total Dipole Moment    :     -0.00000      -0.00000      -2.35906
                        -----------------------------------------
Magnitude (a.u.)       :      2.35906
Magnitude (Debye)      :      5.99626

Rotational constants in cm-1:     0.000000     0.507011     0.507011
Rotational constants in MHz :     0.000000 15199.819890 15199.819890

                             ****ORCA TERMINATED NORMALLY****
TOTAL RUN TIME: 0 days 0 hours 3 minutes 56 seconds 940 msec
