                         Program Version 4.2.0 -  RELEASE  -
|  1> #
|  2> # 45_NiCl wb97m-v/aug-cc-pvtz
|  3> #
|  4> ! wb97m-v aug-cc-pvtz def2/jk grid4 nofinalgrid
|  5>
|  6> *xyz 0 2
|  7>   Ni  0.00000000000000      0.00000000000000     -0.04672403924217
|  8>   Cl  0.00000000000000      0.00000000000000      2.04672403924217
|  9> *
| 10>
| 11> %pal
| 12> nprocs 24
| 13> end
| 14>
| 15>
| 16>                          ****END OF INPUT****

CARTESIAN COORDINATES (ANGSTROEM)
---------------------------------
  Ni     0.000000    0.000000   -0.046724
  Cl     0.000000    0.000000    2.046724

 Total Charge           Charge          ....    0
 Multiplicity           Mult            ....    2
 Number of Electrons    NEL             ....   45
 Basis Dimension        Dim             ....  143

ORBITAL ENERGIES
----------------
                 SPIN UP ORBITALS
  NO   OCC          E(Eh)            E(eV)
   0   1.0000    -300.341450     -8172.7064
   1   1.0000    -101.830761     -2770.9559
   2   1.0000     -35.995827      -979.4962
   3   1.0000     -31.340511      -852.8187
   4   1.0000     -31.309021      -851.9618
   5   1.0000     -31.309021      -851.9618
   6   1.0000      -9.588287      -260.9105
   7   1.0000      -7.289810      -198.3658
   8   1.0000      -7.286605      -198.2786
   9   1.0000      -7.286605      -198.2786
  10   1.0000      -4.173447      -113.5653
  11   1.0000      -2.780226       -75.6538
  12   1.0000      -2.716217       -73.9120
  13   1.0000      -2.716217       -73.9120
  14   1.0000      -0.873438       -23.7675
  15   1.0000      -0.471479       -12.8296
  16   1.0000      -0.427862       -11.6427
  17   1.0000      -0.427862       -11.6427
  18   1.0000      -0.381842       -10.3904
  19   1.0000      -0.376451       -10.2438
  20   1.0000      -0.376448       -10.2437
  21   1.0000      -0.355034        -9.6610
  22   1.0000      -0.355034        -9.6610
  23   0.0000      -0.051761        -1.4085
  24   0.0000       0.010702         0.2912
  25   0.0000       0.010702         0.2912
  26   0.0000       0.021037         0.5724
  27   0.0000       0.024039         0.6541

                 SPIN DOWN ORBITALS
  NO   OCC          E(Eh)            E(eV)
   0   1.0000    -300.340859     -8172.6903
   1   1.0000    -101.830794     -2770.9568
   2   1.0000     -35.970608      -978.8100
   3   1.0000     -31.308312      -851.9425
   4   1.0000     -31.295600      -851.5966
   5   1.0000     -31.295600      -851.5966
   6   1.0000      -9.588321      -260.9115
   7   1.0000      -7.289936      -198.3693
   8   1.0000      -7.286628      -198.2792
   9   1.0000      -7.286628      -198.2792
  10   1.0000      -4.125672      -112.2653
  11   1.0000      -2.688796       -73.1659
  12   1.0000      -2.684262       -73.0425
  13   1.0000      -2.684262       -73.0425
  14   1.0000      -0.872615       -23.7450
  15   1.0000      -0.426839       -11.6149
  16   1.0000      -0.415922       -11.3178
  17   1.0000      -0.415922       -11.3178
  18   1.0000      -0.346875        -9.4389
  19   1.0000      -0.346875        -9.4389
  20   1.0000      -0.346868        -9.4388
  21   1.0000      -0.346867        -9.4387
  22   0.0000      -0.056178        -1.5287
  23   0.0000       0.007612         0.2071
  24   0.0000       0.009307         0.2533
  25   0.0000       0.011825         0.3218
  26   0.0000       0.022164         0.6031

MULLIKEN ATOMIC CHARGES AND SPIN POPULATIONS
--------------------------------------------
   0 Ni:    0.503968    0.949621
   1 Cl:   -0.503968    0.050379
Sum of atomic charges         :   -0.0000000

LOEWDIN ATOMIC CHARGES AND SPIN POPULATIONS
-------------------------------------------
   0 Ni:    0.097792    0.972138
   1 Cl:   -0.097792    0.027862

  Mayer bond orders larger than 0.100000
B(  0-Ni,  1-Cl) :   0.9205

FINAL SINGLE POINT ENERGY     -1968.502806673537

DIPOLE MOMENT
-------------
                                X             Y             Z
Electronic contribution:     -0.00000      -0.00000      -2.38843
Nuclear contribution   :      0.00000       0.00000       0.21916
                        -----------------------------------------
Total Dipole Moment    :     -0.00000      -0.00000      -2.16927
                        -----------------------------------------
Magnitude (a.u.)       :      2.16927
Magnitude (Debye)      :      5.51384

Rotational constants in cm-1:     0.000000     0.174027     0.174027
Rotational constants in MHz :     0.000000  5217.185595  5217.185595

                             ****ORCA TERMINATED NORMALLY****
TOTAL RUN TIME: 0 days 0 hours 8 minutes 34 seconds 631 msec
