                         Program Version 4.2.0 -  RELEASE  -
|  1> #
|  2> # 49_CuH wb97m-v/aug-cc-pvtz
|  3> #
|  4> ! wb97m-v aug-cc-pvtz def2/jk grid4 nofinalgrid
|  5>
|  6> *xyz 0 1
|  7>   Cu  0.00000000000000      0.00000000000000      0.26188782360473
|  8>   H   0.00000000000000      0.00000000000000      1.73811217639527
|  9> *
| 10>
| 11> %pal
| 12> nprocs 24
| 13> end
| 14>
| 15>
| 16>                          ****END OF INPUT****

CARTESIAN COORDINATES (ANGSTROEM)
---------------------------------
  Cu     0.000000    0.000000    0.261888
  H      0.000000    0.000000    1.738112

 Total Charge           Charge          ....    0
 Multiplicity           Mult            ....    1
 Number of Electrons    NEL             ....   30
 Basis Dimension        Dim             ....  116

ORBITAL ENERGIES
----------------

  NO   OCC          E(Eh)            E(eV)
   0   2.0000    -323.537996     -8803.9165
   1   2.0000     -39.054644     -1062.7309
   2   2.0000     -34.154916      -929.4025
   3   2.0000     -34.153728      -929.3702
   4   2.0000     -34.153728      -929.3702
   5   2.0000      -4.456190      -121.2591
   6   2.0000      -2.924213       -79.5719
   7   2.0000      -2.916953       -79.3743
   8   2.0000      -2.916953       -79.3743
   9   2.0000      -0.434847       -11.8328
  10   2.0000      -0.393888       -10.7182
  11   2.0000      -0.393888       -10.7182
  12   2.0000      -0.386669       -10.5218
  13   2.0000      -0.386669       -10.5218
  14   2.0000      -0.331383        -9.0174
  15   0.0000      -0.024282        -0.6607
  16   0.0000       0.012227         0.3327
  17   0.0000       0.012227         0.3327
  18   0.0000       0.021077         0.5735
  19   0.0000       0.034220         0.9312

MULLIKEN ATOMIC CHARGES
-----------------------
   0 Cu:    0.078408
   1 H :   -0.078408
Sum of atomic charges:   -0.0000000

LOEWDIN ATOMIC CHARGES
----------------------
   0 Cu:    0.486798
   1 H :   -0.486798

  Mayer bond orders larger than 0.100000
B(  0-Cu,  1-H ) :   1.0461

FINAL SINGLE POINT ENERGY     -1641.033367803475

DIPOLE MOMENT
-------------
                                X             Y             Z
Electronic contribution:      0.00000      -0.00000      -2.68034
Nuclear contribution   :      0.00000       0.00000       1.48294
                        -----------------------------------------
Total Dipole Moment    :      0.00000      -0.00000      -1.19740
                        -----------------------------------------
Magnitude (a.u.)       :      1.19740
Magnitude (Debye)      :      3.04354

Rotational constants in cm-1:     0.000000     7.795898     7.795898
Rotational constants in MHz :     0.000000 233715.143643 233715.143643

                             ****ORCA TERMINATED NORMALLY****
TOTAL RUN TIME: 0 days 0 hours 2 minutes 39 seconds 276 msec
