                         Program Version 4.2.0 -  RELEASE  -
|  1> #
|  2> # 50_CuF wb97m-v/aug-cc-pvtz
|  3> #
|  4> ! wb97m-v aug-cc-pvtz def2/jk grid4 nofinalgrid
|  5>
|  6> *xyz 0 1
|  7>   Cu  0.00000000000000      0.00000000000000      0.12224745624860
|  8>   F   0.00000000000000      0.00000000000000      1.87775254375140
|  9> *
| 10>
| 11> %pal
| 12> nprocs 24
| 13> end
| 14>
| 15>
| 16>                          ****END OF INPUT****

CARTESIAN COORDINATES (ANGSTROEM)
---------------------------------
  Cu     0.000000    0.000000    0.122247
  F      0.000000    0.000000    1.877753

 Total Charge           Charge          ....    0
 Multiplicity           Mult            ....    1
 Number of Electrons    NEL             ....   38
 Basis Dimension        Dim             ....  139

ORBITAL ENERGIES
----------------

  NO   OCC          E(Eh)            E(eV)
   0   2.0000    -323.558907     -8804.4855
   1   2.0000     -39.072661     -1063.2212
   2   2.0000     -34.173069      -929.8965
   3   2.0000     -34.173069      -929.8965
   4   2.0000     -34.171034      -929.8411
   5   2.0000     -24.798328      -674.7968
   6   2.0000      -4.479349      -121.8893
   7   2.0000      -2.945489       -80.1508
   8   2.0000      -2.941891       -80.0529
   9   2.0000      -2.941891       -80.0529
  10   2.0000      -1.186532       -32.2872
  11   2.0000      -0.493547       -13.4301
  12   2.0000      -0.462591       -12.5877
  13   2.0000      -0.462591       -12.5877
  14   2.0000      -0.412954       -11.2371
  15   2.0000      -0.412954       -11.2370
  16   2.0000      -0.384573       -10.4648
  17   2.0000      -0.384573       -10.4648
  18   2.0000      -0.370952       -10.0941
  19   0.0000      -0.053491        -1.4556
  20   0.0000       0.013212         0.3595
  21   0.0000       0.013212         0.3595
  22   0.0000       0.022749         0.6190
  23   0.0000       0.029518         0.8032

MULLIKEN ATOMIC CHARGES
-----------------------
   0 Cu:    0.693100
   1 F :   -0.693100
Sum of atomic charges:    0.0000000

LOEWDIN ATOMIC CHARGES
----------------------
   0 Cu:    0.439751
   1 F :   -0.439751

  Mayer bond orders larger than 0.100000
B(  0-Cu,  1-F ) :   0.5968

FINAL SINGLE POINT ENERGY     -1740.335232078141

DIPOLE MOMENT
-------------
                                X             Y             Z
Electronic contribution:     -0.00000      -0.00000      -2.95330
Nuclear contribution   :      0.00000       0.00000       0.84427
                        -----------------------------------------
Total Dipole Moment    :     -0.00000      -0.00000      -2.10903
                        -----------------------------------------
Magnitude (a.u.)       :      2.10903
Magnitude (Debye)      :      5.36074

Rotational constants in cm-1:     0.000000     0.374004     0.374004
Rotational constants in MHz :     0.000000 11212.347169 11212.347169

                             ****ORCA TERMINATED NORMALLY****
TOTAL RUN TIME: 0 days 0 hours 3 minutes 28 seconds 109 msec
