                         Program Version 4.2.0 -  RELEASE  -
|  1> #
|  2> # 52_CuBr wb97m-v/aug-cc-pvtz
|  3> #
|  4> ! wb97m-v aug-cc-pvtz def2/jk grid4 nofinalgrid
|  5>
|  6> *xyz 0 1
|  7>   Cu  0.00000000000000      0.00000000000000     -0.09600479667781
|  8>   Br  0.00000000000000      0.00000000000000      2.09600479667781
|  9> *
| 10>
| 11> %pal
| 12> nprocs 24
| 13> end
| 14>
| 15>
| 16>                          ****END OF INPUT****

CARTESIAN COORDINATES (ANGSTROEM)
---------------------------------
  Cu     0.000000    0.000000   -0.096005
  Br     0.000000    0.000000    2.096005

 Total Charge           Charge          ....    0
 Multiplicity           Mult            ....    1
 Number of Electrons    NEL             ....   64
 Basis Dimension        Dim             ....  152

ORBITAL ENERGIES
----------------

  NO   OCC          E(Eh)            E(eV)
   0   2.0000    -483.468110    -13155.8361
   1   2.0000    -323.567483     -8804.7188
   2   2.0000     -62.772736     -1708.1330
   3   2.0000     -56.458833     -1536.3230
   4   2.0000     -56.457445     -1536.2852
   5   2.0000     -56.457445     -1536.2852
   6   2.0000     -39.080620     -1063.4377
   7   2.0000     -34.180712      -930.1045
   8   2.0000     -34.180712      -930.1045
   9   2.0000     -34.179890      -930.0821
  10   2.0000      -8.851269      -240.8553
  11   2.0000      -6.632604      -180.4823
  12   2.0000      -6.627306      -180.3382
  13   2.0000      -6.627306      -180.3382
  14   2.0000      -4.486651      -122.0880
  15   2.0000      -2.953769       -80.3761
  16   2.0000      -2.949139       -80.2501
  17   2.0000      -2.949139       -80.2501
  18   2.0000      -2.715056       -73.8804
  19   2.0000      -2.713470       -73.8373
  20   2.0000      -2.713470       -73.8373
  21   2.0000      -2.709311       -73.7241
  22   2.0000      -2.709275       -73.7231
  23   2.0000      -0.842069       -22.9139
  24   2.0000      -0.452624       -12.3165
  25   2.0000      -0.437417       -11.9027
  26   2.0000      -0.437417       -11.9027
  27   2.0000      -0.420400       -11.4397
  28   2.0000      -0.420393       -11.4395
  29   2.0000      -0.374042       -10.1782
  30   2.0000      -0.350088        -9.5264
  31   2.0000      -0.350088        -9.5264
  32   0.0000      -0.053967        -1.4685
  33   0.0000       0.010636         0.2894
  34   0.0000       0.010636         0.2894
  35   0.0000       0.020622         0.5611
  36   0.0000       0.025196         0.6856

MULLIKEN ATOMIC CHARGES
-----------------------
   0 Cu:    0.486586
   1 Br:   -0.486586
Sum of atomic charges:   -0.0000000

LOEWDIN ATOMIC CHARGES
----------------------
   0 Cu:   -0.058908
   1 Br:    0.058908

  Mayer bond orders larger than 0.100000
B(  0-Cu,  1-Br) :   0.9931

FINAL SINGLE POINT ENERGY     -4214.578653980479

DIPOLE MOMENT
-------------
                                X             Y             Z
Electronic contribution:      0.00000       0.00000       0.62649
Nuclear contribution   :      0.00000       0.00000      -2.68116
                        -----------------------------------------
Total Dipole Moment    :      0.00000       0.00000      -2.05467
                        -----------------------------------------
Magnitude (a.u.)       :      2.05467
Magnitude (Debye)      :      5.22255

Rotational constants in cm-1:     0.000000     0.099117     0.099117
Rotational constants in MHz :     0.000000  2971.467067  2971.467067

                             ****ORCA TERMINATED NORMALLY****
TOTAL RUN TIME: 0 days 0 hours 4 minutes 19 seconds 398 msec
