                         Program Version 4.2.0 -  RELEASE  -
|  1> #
|  2> # 54_CuS wb97m-v/aug-cc-pvtz
|  3> #
|  4> ! wb97m-v aug-cc-pvtz def2/jk grid4 nofinalgrid
|  5>
|  6> *xyz 0 2
|  7>   Cu  0.00000000000000      0.00000000000000     -0.02892798555449
|  8>   S   0.00000000000000      0.00000000000000      2.02892798555449
|  9> *
| 10>
| 11> %pal
| 12> nprocs 24
| 13> end
| 14>
| 15>
| 16>                          ****END OF INPUT****

CARTESIAN COORDINATES (ANGSTROEM)
---------------------------------
  Cu     0.000000    0.000000   -0.028928
  S      0.000000    0.000000    2.028928

 Total Charge           Charge          ....    0
 Multiplicity           Mult            ....    2
 Number of Electrons    NEL             ....   45
 Basis Dimension        Dim             ....  143

ORBITAL ENERGIES
----------------
                 SPIN UP ORBITALS
  NO   OCC          E(Eh)            E(eV)
   0   1.0000    -323.574252     -8804.9030
   1   1.0000     -89.192978     -2427.0643
   2   1.0000     -39.092437     -1063.7593
   3   1.0000     -34.192923      -930.4367
   4   1.0000     -34.192705      -930.4308
   5   1.0000     -34.189269      -930.3373
   6   1.0000      -8.104314      -220.5296
   7   1.0000      -6.022350      -163.8765
   8   1.0000      -6.009920      -163.5382
   9   1.0000      -6.005879      -163.4283
  10   1.0000      -4.496298      -122.3505
  11   1.0000      -2.965994       -80.7088
  12   1.0000      -2.959987       -80.5453
  13   1.0000      -2.953339       -80.3644
  14   1.0000      -0.783611       -21.3231
  15   1.0000      -0.452548       -12.3144
  16   1.0000      -0.452334       -12.3086
  17   1.0000      -0.442915       -12.0523
  18   1.0000      -0.424932       -11.5630
  19   1.0000      -0.424897       -11.5620
  20   1.0000      -0.359718        -9.7884
  21   1.0000      -0.354587        -9.6488
  22   1.0000      -0.326192        -8.8761
  23   0.0000      -0.046813        -1.2738
  24   0.0000       0.011502         0.3130
  25   0.0000       0.013022         0.3543
  26   0.0000       0.022365         0.6086
  27   0.0000       0.024841         0.6760

                 SPIN DOWN ORBITALS
  NO   OCC          E(Eh)            E(eV)
   0   1.0000    -323.574197     -8804.9015
   1   1.0000     -89.187868     -2426.9253
   2   1.0000     -39.089849     -1063.6889
   3   1.0000     -34.190149      -930.3612
   4   1.0000     -34.189940      -930.3556
   5   1.0000     -34.188584      -930.3187
   6   1.0000      -8.099431      -220.3967
   7   1.0000      -6.006185      -163.4366
   8   1.0000      -6.005071      -163.4063
   9   1.0000      -6.002317      -163.3313
  10   1.0000      -4.492029      -122.2343
  11   1.0000      -2.959749       -80.5389
  12   1.0000      -2.953796       -80.3769
  13   1.0000      -2.951774       -80.3219
  14   1.0000      -0.744195       -20.2506
  15   1.0000      -0.444848       -12.1049
  16   1.0000      -0.439599       -11.9621
  17   1.0000      -0.426099       -11.5947
  18   1.0000      -0.422573       -11.4988
  19   1.0000      -0.422453       -11.4955
  20   1.0000      -0.349755        -9.5173
  21   1.0000      -0.311934        -8.4882
  22   0.0000      -0.069359        -1.8874
  23   0.0000      -0.045305        -1.2328
  24   0.0000       0.008192         0.2229
  25   0.0000       0.011834         0.3220
  26   0.0000       0.014835         0.4037

MULLIKEN ATOMIC CHARGES AND SPIN POPULATIONS
--------------------------------------------
   0 Cu:    0.374165    0.032129
   1 S :   -0.374165    0.967871
Sum of atomic charges         :   -0.0000000

LOEWDIN ATOMIC CHARGES AND SPIN POPULATIONS
-------------------------------------------
   0 Cu:   -0.039026    0.144261
   1 S :    0.039026    0.855739

  Mayer bond orders larger than 0.100000
B(  0-Cu,  1-S ) :   1.2619

FINAL SINGLE POINT ENERGY     -2038.641024427719

DIPOLE MOMENT
-------------
                                X             Y             Z
Electronic contribution:     -0.00000       0.00000      -5.36664
Nuclear contribution   :      0.00000       0.00000       3.54103
                        -----------------------------------------
Total Dipole Moment    :     -0.00000       0.00000      -1.82561
                        -----------------------------------------
Magnitude (a.u.)       :      1.82561
Magnitude (Debye)      :      4.64033

Rotational constants in cm-1:     0.000000     0.186806     0.186806
Rotational constants in MHz :     0.000000  5600.307820  5600.307820

                             ****ORCA TERMINATED NORMALLY****
TOTAL RUN TIME: 0 days 0 hours 9 minutes 3 seconds 352 msec
