                         Program Version 4.2.0 -  RELEASE  -
|  1> #
|  2> # 59_ZnO wb97m-v/aug-cc-pvtz
|  3> #
|  4> ! wb97m-v aug-cc-pvtz def2/jk grid4 nofinalgrid
|  5>
|  6> *xyz 0 1
|  7>   Zn  0.00000000000000      0.00000000000000      0.14991809043900
|  8>   O   0.00000000000000      0.00000000000000      1.85008190956100
|  9> *
| 10>
| 11> %pal
| 12> nprocs 24
| 13> end
| 14>
| 15>
| 16>                          ****END OF INPUT****

CARTESIAN COORDINATES (ANGSTROEM)
---------------------------------
  Zn     0.000000    0.000000    0.149918
  O      0.000000    0.000000    1.850082

 Total Charge           Charge          ....    0
 Multiplicity           Mult            ....    1
 Number of Electrons    NEL             ....   38
 Basis Dimension        Dim             ....  139

ORBITAL ENERGIES
----------------

  NO   OCC          E(Eh)            E(eV)
   0   2.0000    -347.865331     -9465.8969
   1   2.0000     -42.523330     -1157.1186
   2   2.0000     -37.393014     -1017.5156
   3   2.0000     -37.393014     -1017.5156
   4   2.0000     -37.391590     -1017.4769
   5   2.0000     -19.293481      -525.0023
   6   2.0000      -5.045273      -137.2889
   7   2.0000      -3.403983       -92.6271
   8   2.0000      -3.402145       -92.5771
   9   2.0000      -3.402145       -92.5771
  10   2.0000      -0.980745       -26.6874
  11   2.0000      -0.661801       -18.0085
  12   2.0000      -0.661801       -18.0085
  13   2.0000      -0.655238       -17.8299
  14   2.0000      -0.655238       -17.8299
  15   2.0000      -0.652196       -17.7472
  16   2.0000      -0.393410       -10.7052
  17   2.0000      -0.350673        -9.5423
  18   2.0000      -0.350673        -9.5423
  19   0.0000      -0.088652        -2.4124
  20   0.0000       0.008516         0.2317
  21   0.0000       0.008517         0.2318
  22   0.0000       0.010111         0.2751
  23   0.0000       0.029530         0.8035

MULLIKEN ATOMIC CHARGES
-----------------------
   0 Zn:    0.820521
   1 O :   -0.820521
Sum of atomic charges:   -0.0000000

LOEWDIN ATOMIC CHARGES
----------------------
   0 Zn:    0.718207
   1 O :   -0.718207

  Mayer bond orders larger than 0.100000
B(  0-Zn,  1-O ) :   1.5826

FINAL SINGLE POINT ENERGY     -1854.459970745551

DIPOLE MOMENT
-------------
                                X             Y             Z
Electronic contribution:     -0.00000      -0.00000      -4.18602
Nuclear contribution   :      0.00000       0.00000       1.70040
                        -----------------------------------------
Total Dipole Moment    :     -0.00000      -0.00000      -2.48562
                        -----------------------------------------
Magnitude (a.u.)       :      2.48562
Magnitude (Debye)      :      6.31794

Rotational constants in cm-1:     0.000000     0.453722     0.453722
Rotational constants in MHz :     0.000000 13602.247054 13602.247054

                             ****ORCA TERMINATED NORMALLY****
TOTAL RUN TIME: 0 days 0 hours 3 minutes 13 seconds 466 msec
