                         Program Version 4.2.0 -  RELEASE  -
|  1> #
|  2> # 60_ZnS wb97m-v/aug-cc-pvtz
|  3> #
|  4> ! wb97m-v aug-cc-pvtz def2/jk grid4 nofinalgrid
|  5>
|  6> *xyz 0 1
|  7>   Zn  0.00000000000000      0.00000000000000     -0.02757018403008
|  8>   S   0.00000000000000      0.00000000000000      2.02757018403008
|  9> *
| 10>
| 11> %pal
| 12> nprocs 24
| 13> end
| 14>
| 15>
| 16>                          ****END OF INPUT****

CARTESIAN COORDINATES (ANGSTROEM)
---------------------------------
  Zn     0.000000    0.000000   -0.027570
  S      0.000000    0.000000    2.027570

 Total Charge           Charge          ....    0
 Multiplicity           Mult            ....    1
 Number of Electrons    NEL             ....   46
 Basis Dimension        Dim             ....  143

ORBITAL ENERGIES
----------------

  NO   OCC          E(Eh)            E(eV)
   0   2.0000    -347.879537     -9466.2835
   1   2.0000     -89.170050     -2426.4404
   2   2.0000     -42.536923     -1157.4885
   3   2.0000     -37.406328     -1017.8779
   4   2.0000     -37.406328     -1017.8779
   5   2.0000     -37.405974     -1017.8683
   6   2.0000      -8.081791      -219.9167
   7   2.0000      -5.994447      -163.1172
   8   2.0000      -5.985504      -162.8739
   9   2.0000      -5.985504      -162.8739
  10   2.0000      -5.058381      -137.6455
  11   2.0000      -3.418463       -93.0211
  12   2.0000      -3.414812       -92.9218
  13   2.0000      -3.414812       -92.9218
  14   2.0000      -0.772334       -21.0163
  15   2.0000      -0.673978       -18.3399
  16   2.0000      -0.673978       -18.3399
  17   2.0000      -0.667532       -18.1645
  18   2.0000      -0.667528       -18.1643
  19   2.0000      -0.659478       -17.9453
  20   2.0000      -0.396769       -10.7966
  21   2.0000      -0.318876        -8.6771
  22   2.0000      -0.318876        -8.6771
  23   0.0000      -0.089965        -2.4481
  24   0.0000       0.005036         0.1370
  25   0.0000       0.005036         0.1370
  26   0.0000       0.008669         0.2359
  27   0.0000       0.025601         0.6966

MULLIKEN ATOMIC CHARGES
-----------------------
   0 Zn:    0.478229
   1 S :   -0.478229
Sum of atomic charges:   -0.0000000

LOEWDIN ATOMIC CHARGES
----------------------
   0 Zn:    0.334564
   1 S :   -0.334564

  Mayer bond orders larger than 0.100000
B(  0-Zn,  1-S ) :   1.7069

FINAL SINGLE POINT ENERGY     -2177.489786120048

DIPOLE MOMENT
-------------
                                X             Y             Z
Electronic contribution:     -0.00000      -0.00000      -5.69106
Nuclear contribution   :      0.00000       0.00000       3.35914
                        -----------------------------------------
Total Dipole Moment    :     -0.00000      -0.00000      -2.33193
                        -----------------------------------------
Magnitude (a.u.)       :      2.33193
Magnitude (Debye)      :      5.92728

Rotational constants in cm-1:     0.000000     0.185542     0.185542
Rotational constants in MHz :     0.000000  5562.415993  5562.415993

                             ****ORCA TERMINATED NORMALLY****
TOTAL RUN TIME: 0 days 0 hours 3 minutes 45 seconds 331 msec
