                         Program Version 4.2.0 -  RELEASE  -
|  1> #
|  2> # 63_V wb97m-v/aug-cc-pvtz
|  3> #
|  4> ! wb97m-v aug-cc-pvtz def2/jk grid4 nofinalgrid
|  5>
|  6> *xyz 0 4
|  7> V 0.0 0.0 0.0
|  8> *
|  9>
| 10> %pal
| 11> nprocs 24
| 12> end
| 13>
| 14>
| 15>                          ****END OF INPUT****

CARTESIAN COORDINATES (ANGSTROEM)
---------------------------------
  V      0.000000    0.000000    0.000000

 Total Charge           Charge          ....    0
 Multiplicity           Mult            ....    4
 Number of Electrons    NEL             ....   23
 Basis Dimension        Dim             ....   93

ORBITAL ENERGIES
----------------
                 SPIN UP ORBITALS
  NO   OCC          E(Eh)            E(eV)
   0   1.0000    -197.194915     -5365.9465
   1   1.0000     -22.332836      -607.7073
   2   1.0000     -18.760591      -510.5016
   3   1.0000     -18.755155      -510.3537
   4   1.0000     -18.749640      -510.2037
   5   1.0000      -2.693008       -73.2805
   6   1.0000      -1.720615       -46.8203
   7   1.0000      -1.717150       -46.7260
   8   1.0000      -1.714045       -46.6415
   9   1.0000      -0.271149        -7.3783
  10   1.0000      -0.259745        -7.0680
  11   1.0000      -0.243421        -6.6238
  12   1.0000      -0.241081        -6.5602
  13   0.0000      -0.042877        -1.1667
  14   0.0000       0.000793         0.0216
  15   0.0000       0.002310         0.0629
  16   0.0000       0.002405         0.0654
  17   0.0000       0.016212         0.4411

                 SPIN DOWN ORBITALS
  NO   OCC          E(Eh)            E(eV)
   0   1.0000    -197.195733     -5365.9687
   1   1.0000     -22.283934      -606.3767
   2   1.0000     -18.727684      -509.6062
   3   1.0000     -18.714849      -509.2569
   4   1.0000     -18.704509      -508.9756
   5   1.0000      -2.567639       -69.8690
   6   1.0000      -1.600023       -43.5388
   7   1.0000      -1.570293       -42.7298
   8   1.0000      -1.548643       -42.1407
   9   1.0000      -0.202901        -5.5212
  10   0.0000       0.028532         0.7764
  11   0.0000       0.029541         0.8039
  12   0.0000       0.029709         0.8084
  13   0.0000       0.036577         0.9953
  14   0.0000       0.072406         1.9703

MULLIKEN ATOMIC CHARGES AND SPIN POPULATIONS
--------------------------------------------
   0 V :   -0.000000    3.000000
Sum of atomic charges         :   -0.0000000

LOEWDIN ATOMIC CHARGES AND SPIN POPULATIONS
-------------------------------------------
   0 V :   -0.000000    3.000000

FINAL SINGLE POINT ENERGY      -943.837688094684

DIPOLE MOMENT
-------------
                                X             Y             Z
Electronic contribution:      0.00143       0.00411       0.00011
Nuclear contribution   :      0.00000       0.00000       0.00000
                        -----------------------------------------
Total Dipole Moment    :      0.00143       0.00411       0.00011
                        -----------------------------------------
Magnitude (a.u.)       :      0.00436
Magnitude (Debye)      :      0.01107

Rotational constants in cm-1:     0.000000     0.000000     0.000000
Rotational constants in MHz :     0.000000     0.000000     0.000000

                             ****ORCA TERMINATED NORMALLY****
TOTAL RUN TIME: 0 days 0 hours 5 minutes 34 seconds 994 msec
