                         Program Version 4.2.0 -  RELEASE  -
|  1> #
|  2> # 65_Mn wb97m-v/aug-cc-pvtz
|  3> #
|  4> ! wb97m-v aug-cc-pvtz def2/jk grid4 nofinalgrid
|  5>
|  6> *xyz 0 6
|  7> Mn 0.0 0.0 0.0
|  8> *
|  9>
| 10> %pal
| 11> nprocs 24
| 12> end
| 13>
| 14>
| 15>                          ****END OF INPUT****

CARTESIAN COORDINATES (ANGSTROEM)
---------------------------------
  Mn     0.000000    0.000000    0.000000

 Total Charge           Charge          ....    0
 Multiplicity           Mult            ....    6
 Number of Electrons    NEL             ....   25
 Basis Dimension        Dim             ....   93

ORBITAL ENERGIES
----------------
                 SPIN UP ORBITALS
  NO   OCC          E(Eh)            E(eV)
   0   1.0000    -235.994977     -6421.7498
   1   1.0000     -27.625823      -751.7369
   2   1.0000     -23.606399      -642.3628
   3   1.0000     -23.606396      -642.3627
   4   1.0000     -23.606396      -642.3627
   5   1.0000      -3.459644       -94.1417
   6   1.0000      -2.305434       -62.7340
   7   1.0000      -2.305431       -62.7340
   8   1.0000      -2.305429       -62.7339
   9   1.0000      -0.482140       -13.1197
  10   1.0000      -0.482140       -13.1197
  11   1.0000      -0.482139       -13.1197
  12   1.0000      -0.482138       -13.1197
  13   1.0000      -0.482136       -13.1196
  14   1.0000      -0.289526        -7.8784
  15   0.0000       0.000557         0.0152
  16   0.0000       0.000560         0.0152
  17   0.0000       0.000562         0.0153
  18   0.0000       0.010243         0.2787
  19   0.0000       0.047488         1.2922

                 SPIN DOWN ORBITALS
  NO   OCC          E(Eh)            E(eV)
   0   1.0000    -235.993079     -6421.6982
   1   1.0000     -27.527555      -749.0628
   2   1.0000     -23.528048      -640.2307
   3   1.0000     -23.528045      -640.2307
   4   1.0000     -23.528045      -640.2307
   5   1.0000      -3.242676       -88.2377
   6   1.0000      -2.064995       -56.1914
   7   1.0000      -2.064991       -56.1913
   8   1.0000      -2.064980       -56.1910
   9   1.0000      -0.259833        -7.0704
  10   0.0000       0.009966         0.2712
  11   0.0000       0.009967         0.2712
  12   0.0000       0.009969         0.2713
  13   0.0000       0.018877         0.5137
  14   0.0000       0.042454         1.1552

MULLIKEN ATOMIC CHARGES AND SPIN POPULATIONS
--------------------------------------------
   0 Mn:    0.000000    5.000000
Sum of atomic charges         :    0.0000000

LOEWDIN ATOMIC CHARGES AND SPIN POPULATIONS
-------------------------------------------
   0 Mn:    0.000000    5.000000

FINAL SINGLE POINT ENERGY     -1150.936761833254

DIPOLE MOMENT
-------------
                                X             Y             Z
Electronic contribution:     -0.00000       0.00000       0.00000
Nuclear contribution   :      0.00000       0.00000       0.00000
                        -----------------------------------------
Total Dipole Moment    :     -0.00000       0.00000       0.00000
                        -----------------------------------------
Magnitude (a.u.)       :      0.00000
Magnitude (Debye)      :      0.00000

Rotational constants in cm-1:     0.000000     0.000000     0.000000
Rotational constants in MHz :     0.000000     0.000000     0.000000

                             ****ORCA TERMINATED NORMALLY****
TOTAL RUN TIME: 0 days 0 hours 2 minutes 49 seconds 346 msec
