                         Program Version 4.2.0 -  RELEASE  -
|  1> #
|  2> # 67_Co wb97m-v/aug-cc-pvtz
|  3> #
|  4> ! wb97m-v aug-cc-pvtz def2/jk grid4 nofinalgrid slowconv
|  5>
|  6> *xyz 0 4
|  7> Co 0.0 0.0 0.0
|  8> *
|  9>
| 10> %pal
| 11> nprocs 24
| 12> end
| 13>
| 14>
| 15>                          ****END OF INPUT****

CARTESIAN COORDINATES (ANGSTROEM)
---------------------------------
  Co     0.000000    0.000000    0.000000

 Total Charge           Charge          ....    0
 Multiplicity           Mult            ....    4
 Number of Electrons    NEL             ....   27
 Basis Dimension        Dim             ....   93

ORBITAL ENERGIES
----------------
                 SPIN UP ORBITALS
  NO   OCC          E(Eh)            E(eV)
   0   1.0000    -277.980323     -7564.2291
   1   1.0000     -33.035984      -898.9548
   2   1.0000     -28.582730      -777.7756
   3   1.0000     -28.580395      -777.7121
   4   1.0000     -28.577648      -777.6373
   5   1.0000      -3.872690      -105.3813
   6   1.0000      -2.537813       -69.0574
   7   1.0000      -2.533900       -68.9509
   8   1.0000      -2.530183       -68.8498
   9   1.0000      -0.395592       -10.7646
  10   1.0000      -0.394089       -10.7237
  11   1.0000      -0.370132       -10.0718
  12   1.0000      -0.367087        -9.9889
  13   1.0000      -0.366799        -9.9811
  14   1.0000      -0.262462        -7.1420
  15   0.0000       0.007722         0.2101
  16   0.0000       0.009312         0.2534
  17   0.0000       0.009531         0.2593
  18   0.0000       0.015254         0.4151
  19   0.0000       0.067325         1.8320

                 SPIN DOWN ORBITALS
  NO   OCC          E(Eh)            E(eV)
   0   1.0000    -277.978214     -7564.1718
   1   1.0000     -32.982876      -897.5097
   2   1.0000     -28.540489      -776.6262
   3   1.0000     -28.539086      -776.5880
   4   1.0000     -28.536446      -776.5162
   5   1.0000      -3.768120      -102.5358
   6   1.0000      -2.422085       -65.9083
   7   1.0000      -2.418885       -65.8212
   8   1.0000      -2.418577       -65.8128
   9   1.0000      -0.313034        -8.5181
  10   1.0000      -0.312521        -8.5041
  11   1.0000      -0.296804        -8.0764
  12   0.0000      -0.120741        -3.2855
  13   0.0000      -0.089805        -2.4437
  14   0.0000      -0.031128        -0.8470
  15   0.0000      -0.029232        -0.7954
  16   0.0000      -0.025038        -0.6813

MULLIKEN ATOMIC CHARGES AND SPIN POPULATIONS
--------------------------------------------
   0 Co:    0.000000    3.000000
Sum of atomic charges         :    0.0000000

LOEWDIN ATOMIC CHARGES AND SPIN POPULATIONS
-------------------------------------------
   0 Co:    0.000000    3.000000

FINAL SINGLE POINT ENERGY     -1382.660418619820

DIPOLE MOMENT
-------------
                                X             Y             Z
Electronic contribution:     -0.00000      -0.00000       0.00000
Nuclear contribution   :      0.00000       0.00000       0.00000
                        -----------------------------------------
Total Dipole Moment    :     -0.00000      -0.00000       0.00000
                        -----------------------------------------
Magnitude (a.u.)       :      0.00000
Magnitude (Debye)      :      0.00000

Rotational constants in cm-1:     0.000000     0.000000     0.000000
Rotational constants in MHz :     0.000000     0.000000     0.000000

                             ****ORCA TERMINATED NORMALLY****
TOTAL RUN TIME: 0 days 0 hours 11 minutes 18 seconds 913 msec
