                         Program Version 4.2.0 -  RELEASE  -
|  1> #
|  2> # 68_Ni wb97m-v/aug-cc-pvtz
|  3> #
|  4> ! wb97m-v aug-cc-pvtz def2/jk grid4 nofinalgrid
|  5>
|  6> *xyz 0 3
|  7> Ni 0.0 0.0 0.0
|  8> *
|  9>
| 10> %pal
| 11> nprocs 24
| 12> end
| 13>
| 14>
| 15>                          ****END OF INPUT****

CARTESIAN COORDINATES (ANGSTROEM)
---------------------------------
  Ni     0.000000    0.000000    0.000000

 Total Charge           Charge          ....    0
 Multiplicity           Mult            ....    3
 Number of Electrons    NEL             ....   28
 Basis Dimension        Dim             ....   93

ORBITAL ENERGIES
----------------
                 SPIN UP ORBITALS
  NO   OCC          E(Eh)            E(eV)
   0   1.0000    -300.319260     -8172.1025
   1   1.0000     -35.976523      -978.9710
   2   1.0000     -31.320867      -852.2841
   3   1.0000     -31.294447      -851.5652
   4   1.0000     -31.283245      -851.2604
   5   1.0000      -4.152400      -112.9925
   6   1.0000      -2.756447       -75.0067
   7   1.0000      -2.705776       -73.6279
   8   1.0000      -2.684957       -73.0614
   9   1.0000      -0.420653       -11.4466
  10   1.0000      -0.384936       -10.4746
  11   1.0000      -0.376297       -10.2396
  12   1.0000      -0.353902        -9.6302
  13   1.0000      -0.353362        -9.6155
  14   1.0000      -0.265106        -7.2139
  15   0.0000       0.008809         0.2397
  16   0.0000       0.010408         0.2832
  17   0.0000       0.010472         0.2849
  18   0.0000       0.016546         0.4502
  19   0.0000       0.068986         1.8772

                 SPIN DOWN ORBITALS
  NO   OCC          E(Eh)            E(eV)
   0   1.0000    -300.317441     -8172.0530
   1   1.0000     -35.946688      -978.1591
   2   1.0000     -31.284189      -851.2861
   3   1.0000     -31.274900      -851.0333
   4   1.0000     -31.269868      -850.8964
   5   1.0000      -4.095604      -111.4471
   6   1.0000      -2.658060       -72.3295
   7   1.0000      -2.654322       -72.2278
   8   1.0000      -2.652064       -72.1663
   9   1.0000      -0.359260        -9.7760
  10   1.0000      -0.346561        -9.4304
  11   1.0000      -0.314963        -8.5706
  12   1.0000      -0.312850        -8.5131
  13   0.0000      -0.105109        -2.8602
  14   0.0000      -0.066608        -1.8125
  15   0.0000      -0.047723        -1.2986
  16   0.0000      -0.040298        -1.0966
  17   0.0000      -0.014449        -0.3932

MULLIKEN ATOMIC CHARGES AND SPIN POPULATIONS
--------------------------------------------
   0 Ni:    0.000000    2.000000
Sum of atomic charges         :    0.0000000

LOEWDIN ATOMIC CHARGES AND SPIN POPULATIONS
-------------------------------------------
   0 Ni:    0.000000    2.000000

FINAL SINGLE POINT ENERGY     -1508.215093816677

DIPOLE MOMENT
-------------
                                X             Y             Z
Electronic contribution:     -0.00057       0.00620       0.00074
Nuclear contribution   :      0.00000       0.00000       0.00000
                        -----------------------------------------
Total Dipole Moment    :     -0.00057       0.00620       0.00074
                        -----------------------------------------
Magnitude (a.u.)       :      0.00627
Magnitude (Debye)      :      0.01593

Rotational constants in cm-1:     0.000000     0.000000     0.000000
Rotational constants in MHz :     0.000000     0.000000     0.000000

                             ****ORCA TERMINATED NORMALLY****
TOTAL RUN TIME: 0 days 0 hours 6 minutes 11 seconds 673 msec
