                         Program Version 4.2.0 -  RELEASE  -
|  1> #
|  2> # 69_Cu wb97m-v/aug-cc-pvtz
|  3> #
|  4> ! wb97m-v aug-cc-pvtz def2/jk grid4 nofinalgrid
|  5>
|  6> *xyz 0 2
|  7> Cu 0.0 0.0 0.0
|  8> *
|  9>
| 10> %pal
| 11> nprocs 24
| 12> end
| 13>
| 14>
| 15>                          ****END OF INPUT****

CARTESIAN COORDINATES (ANGSTROEM)
---------------------------------
  Cu     0.000000    0.000000    0.000000

 Total Charge           Charge          ....    0
 Multiplicity           Mult            ....    2
 Number of Electrons    NEL             ....   29
 Basis Dimension        Dim             ....   93

ORBITAL ENERGIES
----------------
                 SPIN UP ORBITALS
  NO   OCC          E(Eh)            E(eV)
   0   1.0000    -323.524017     -8803.5361
   1   1.0000     -39.036435     -1062.2354
   2   1.0000     -34.136103      -928.8906
   3   1.0000     -34.136103      -928.8906
   4   1.0000     -34.136103      -928.8906
   5   1.0000      -4.440985      -120.8453
   6   1.0000      -2.904654       -79.0396
   7   1.0000      -2.904654       -79.0396
   8   1.0000      -2.904654       -79.0396
   9   1.0000      -0.378333       -10.2950
  10   1.0000      -0.378333       -10.2950
  11   1.0000      -0.378333       -10.2950
  12   1.0000      -0.378333       -10.2950
  13   1.0000      -0.378333       -10.2950
  14   1.0000      -0.268729        -7.3125
  15   0.0000       0.011145         0.3033
  16   0.0000       0.011146         0.3033
  17   0.0000       0.011146         0.3033
  18   0.0000       0.018007         0.4900
  19   0.0000       0.075999         2.0681

                 SPIN DOWN ORBITALS
  NO   OCC          E(Eh)            E(eV)
   0   1.0000    -323.522703     -8803.5003
   1   1.0000     -39.034296     -1062.1772
   2   1.0000     -34.134517      -928.8474
   3   1.0000     -34.134517      -928.8474
   4   1.0000     -34.134517      -928.8474
   5   1.0000      -4.436563      -120.7250
   6   1.0000      -2.900665       -78.9311
   7   1.0000      -2.900665       -78.9311
   8   1.0000      -2.900665       -78.9311
   9   1.0000      -0.372265       -10.1298
  10   1.0000      -0.372265       -10.1298
  11   1.0000      -0.372265       -10.1298
  12   1.0000      -0.372265       -10.1298
  13   1.0000      -0.372265       -10.1298
  14   0.0000      -0.112422        -3.0591
  15   0.0000      -0.066952        -1.8219
  16   0.0000      -0.066946        -1.8217
  17   0.0000      -0.066939        -1.8215
  18   0.0000      -0.029021        -0.7897

MULLIKEN ATOMIC CHARGES AND SPIN POPULATIONS
--------------------------------------------
   0 Cu:    0.000000    1.000000
Sum of atomic charges         :    0.0000000

LOEWDIN ATOMIC CHARGES AND SPIN POPULATIONS
-------------------------------------------
   0 Cu:    0.000000    1.000000

FINAL SINGLE POINT ENERGY     -1640.427769697060

DIPOLE MOMENT
-------------
                                X             Y             Z
Electronic contribution:     -0.00000       0.00000      -0.00000
Nuclear contribution   :      0.00000       0.00000       0.00000
                        -----------------------------------------
Total Dipole Moment    :     -0.00000       0.00000      -0.00000
                        -----------------------------------------
Magnitude (a.u.)       :      0.00000
Magnitude (Debye)      :      0.00000

Rotational constants in cm-1:     0.000000     0.000000     0.000000
Rotational constants in MHz :     0.000000     0.000000     0.000000

                             ****ORCA TERMINATED NORMALLY****
TOTAL RUN TIME: 0 days 0 hours 1 minutes 49 seconds 20 msec
