                         Program Version 4.2.0 -  RELEASE  -
|  1> #
|  2> # 02_ScF tpssh/aug-cc-pvtz
|  3> #
|  4> ! tpssh d3bj aug-cc-pvtz def2/jk grid4 nofinalgrid
|  5>
|  6> *xyz 0 1
|  7>   Sc  0.00000000000000      0.00000000000000      0.10357126289626
|  8>   F   0.00000000000000      0.00000000000000      1.89642873710374
|  9> *
| 10>
| 11> %pal
| 12> nprocs 24
| 13> end
| 14>
| 15>
| 16>                          ****END OF INPUT****

CARTESIAN COORDINATES (ANGSTROEM)
---------------------------------
  Sc     0.000000    0.000000    0.103571
  F      0.000000    0.000000    1.896429

 Total Charge           Charge          ....    0
 Multiplicity           Mult            ....    1
 Number of Electrons    NEL             ....   30
 Basis Dimension        Dim             ....  139

ORBITAL ENERGIES
----------------

  NO   OCC          E(Eh)            E(eV)
   0   2.0000    -161.591045     -4397.1159
   1   2.0000     -24.591737      -669.1752
   2   2.0000     -17.585126      -478.5156
   3   2.0000     -14.492041      -394.3485
   4   2.0000     -14.492041      -394.3485
   5   2.0000     -14.479676      -394.0120
   6   2.0000      -2.138282       -58.1856
   7   2.0000      -1.344927       -36.5973
   8   2.0000      -1.335843       -36.3501
   9   2.0000      -1.335843       -36.3501
  10   2.0000      -1.103451       -30.0264
  11   2.0000      -0.417700       -11.3662
  12   2.0000      -0.402305       -10.9473
  13   2.0000      -0.402305       -10.9473
  14   2.0000      -0.168058        -4.5731
  15   0.0000      -0.131890        -3.5889
  16   0.0000      -0.131890        -3.5889
  17   0.0000      -0.102199        -2.7810
  18   0.0000      -0.102199        -2.7810
  19   0.0000      -0.079827        -2.1722

MULLIKEN ATOMIC CHARGES
-----------------------
   0 Sc:    0.646690
   1 F :   -0.646690
Sum of atomic charges:    0.0000000

LOEWDIN ATOMIC CHARGES
----------------------
   0 Sc:    0.374306
   1 F :   -0.374306

  Mayer bond orders larger than 0.100000
B(  0-Sc,  1-F ) :   0.8381

Dispersion correction           -0.000569394
FINAL SINGLE POINT ENERGY      -860.619813889495

DIPOLE MOMENT
-------------
                                X             Y             Z
Electronic contribution:     -0.00000      -0.00000      -1.02142
Nuclear contribution   :      0.00000       0.00000       0.30099
                        -----------------------------------------
Total Dipole Moment    :     -0.00000      -0.00000      -0.72043
                        -----------------------------------------
Magnitude (a.u.)       :      0.72043
Magnitude (Debye)      :      1.83119

Rotational constants in cm-1:     0.000000     0.392705     0.392705
Rotational constants in MHz :     0.000000 11772.989606 11772.989606

                             ****ORCA TERMINATED NORMALLY****
TOTAL RUN TIME: 0 days 0 hours 1 minutes 28 seconds 109 msec
