                         Program Version 4.2.0 -  RELEASE  -
|  1> #
|  2> # 03_ScCl tpssh/aug-cc-pvtz
|  3> #
|  4> ! tpssh d3bj aug-cc-pvtz def2/jk grid4 nofinalgrid
|  5>
|  6> *xyz 0 1
|  7>   Sc  0.00000000000000      0.00000000000000     -0.11786902866458
|  8>   Cl  0.00000000000000      0.00000000000000      2.11786902866458
|  9> *
| 10>
| 11> %pal
| 12> nprocs 24
| 13> end
| 14>
| 15>
| 16>                          ****END OF INPUT****

CARTESIAN COORDINATES (ANGSTROEM)
---------------------------------
  Sc     0.000000    0.000000   -0.117869
  Cl     0.000000    0.000000    2.117869

 Total Charge           Charge          ....    0
 Multiplicity           Mult            ....    1
 Number of Electrons    NEL             ....   38
 Basis Dimension        Dim             ....  143

ORBITAL ENERGIES
----------------

  NO   OCC          E(Eh)            E(eV)
   0   2.0000    -161.578393     -4396.7716
   1   2.0000    -101.388975     -2758.9343
   2   2.0000     -17.565891      -477.9922
   3   2.0000     -14.474319      -393.8663
   4   2.0000     -14.474319      -393.8663
   5   2.0000     -14.459326      -393.4583
   6   2.0000      -9.368591      -254.9323
   7   2.0000      -7.111777      -193.5213
   8   2.0000      -7.110904      -193.4975
   9   2.0000      -7.110904      -193.4975
  10   2.0000      -2.121410       -57.7265
  11   2.0000      -1.321843       -35.9692
  12   2.0000      -1.321843       -35.9692
  13   2.0000      -1.308551       -35.6075
  14   2.0000      -0.770612       -20.9694
  15   2.0000      -0.343614        -9.3502
  16   2.0000      -0.316398        -8.6096
  17   2.0000      -0.316398        -8.6096
  18   2.0000      -0.165911        -4.5147
  19   0.0000      -0.123929        -3.3723
  20   0.0000      -0.123925        -3.3722
  21   0.0000      -0.102081        -2.7778
  22   0.0000      -0.102081        -2.7778
  23   0.0000      -0.091354        -2.4859

MULLIKEN ATOMIC CHARGES
-----------------------
   0 Sc:    0.347078
   1 Cl:   -0.347078
Sum of atomic charges:   -0.0000000

LOEWDIN ATOMIC CHARGES
----------------------
   0 Sc:   -0.153122
   1 Cl:    0.153122

  Mayer bond orders larger than 0.100000
B(  0-Sc,  1-Cl) :   1.3654

Dispersion correction           -0.001650358
FINAL SINGLE POINT ENERGY     -1220.974143652032

DIPOLE MOMENT
-------------
                                X             Y             Z
Electronic contribution:      0.00000      -0.00000      -2.16232
Nuclear contribution   :      0.00000       0.00000       1.04067
                        -----------------------------------------
Total Dipole Moment    :      0.00000      -0.00000      -1.12165
                        -----------------------------------------
Magnitude (a.u.)       :      1.12165
Magnitude (Debye)      :      2.85100

Rotational constants in cm-1:     0.000000     0.170138     0.170138
Rotational constants in MHz :     0.000000  5100.617263  5100.617263

                             ****ORCA TERMINATED NORMALLY****
TOTAL RUN TIME: 0 days 0 hours 1 minutes 40 seconds 646 msec
