                         Program Version 4.2.0 -  RELEASE  -
|  1> #
|  2> # 05_ScO tpssh/aug-cc-pvtz
|  3> #
|  4> ! tpssh d3bj aug-cc-pvtz def2/jk grid4 nofinalgrid
|  5>
|  6> *xyz 0 2
|  7>   Sc  0.00000000000000      0.00000000000000      0.16492994527036
|  8>   O   0.00000000000000      0.00000000000000      1.83507005472964
|  9> *
| 10>
| 11> %pal
| 12> nprocs 24
| 13> end
| 14>
| 15>
| 16>                          ****END OF INPUT****

CARTESIAN COORDINATES (ANGSTROEM)
---------------------------------
  Sc     0.000000    0.000000    0.164930
  O      0.000000    0.000000    1.835070

 Total Charge           Charge          ....    0
 Multiplicity           Mult            ....    2
 Number of Electrons    NEL             ....   29
 Basis Dimension        Dim             ....  139

ORBITAL ENERGIES
----------------
                 SPIN UP ORBITALS
  NO   OCC          E(Eh)            E(eV)
   0   1.0000    -161.511199     -4394.9432
   1   1.0000     -19.000758      -517.0369
   2   1.0000     -17.490125      -475.9305
   3   1.0000     -14.397244      -391.7689
   4   1.0000     -14.397244      -391.7689
   5   1.0000     -14.388433      -391.5292
   6   1.0000      -2.059566       -56.0436
   7   1.0000      -1.271568       -34.6011
   8   1.0000      -1.263152       -34.3721
   9   1.0000      -1.263152       -34.3721
  10   1.0000      -0.798930       -21.7400
  11   1.0000      -0.274112        -7.4590
  12   1.0000      -0.274112        -7.4590
  13   1.0000      -0.267421        -7.2769
  14   1.0000      -0.158249        -4.3062
  15   0.0000      -0.084110        -2.2887
  16   0.0000      -0.084109        -2.2887
  17   0.0000      -0.068439        -1.8623
  18   0.0000      -0.068439        -1.8623
  19   0.0000      -0.043015        -1.1705

                 SPIN DOWN ORBITALS
  NO   OCC          E(Eh)            E(eV)
   0   1.0000    -161.510389     -4394.9211
   1   1.0000     -19.001891      -517.0678
   2   1.0000     -17.488517      -475.8867
   3   1.0000     -14.396098      -391.7377
   4   1.0000     -14.396098      -391.7377
   5   1.0000     -14.386739      -391.4831
   6   1.0000      -2.053874       -55.8888
   7   1.0000      -1.263077       -34.3701
   8   1.0000      -1.258648       -34.2496
   9   1.0000      -1.258648       -34.2496
  10   1.0000      -0.800596       -21.7853
  11   1.0000      -0.274549        -7.4709
  12   1.0000      -0.274549        -7.4709
  13   1.0000      -0.267461        -7.2780
  14   0.0000      -0.107339        -2.9208
  15   0.0000      -0.070815        -1.9270
  16   0.0000      -0.070798        -1.9265
  17   0.0000      -0.043994        -1.1971
  18   0.0000      -0.043994        -1.1971

MULLIKEN ATOMIC CHARGES AND SPIN POPULATIONS
--------------------------------------------
   0 Sc:    0.883368    1.002578
   1 O :   -0.883368   -0.002578
Sum of atomic charges         :   -0.0000000

LOEWDIN ATOMIC CHARGES AND SPIN POPULATIONS
-------------------------------------------
   0 Sc:    0.695646    0.946103
   1 O :   -0.695646    0.053897

  Mayer bond orders larger than 0.100000
B(  0-Sc,  1-O ) :   1.9535

Dispersion correction           -0.000796541
FINAL SINGLE POINT ENERGY      -835.994170950638

DIPOLE MOMENT
-------------
                                X             Y             Z
Electronic contribution:      0.00000      -0.00000      -2.63584
Nuclear contribution   :      0.00000       0.00000       1.22710
                        -----------------------------------------
Total Dipole Moment    :      0.00000      -0.00000      -1.40873
                        -----------------------------------------
Magnitude (a.u.)       :      1.40873
Magnitude (Debye)      :      3.58072

Rotational constants in cm-1:     0.000000     0.512165     0.512165
Rotational constants in MHz :     0.000000 15354.316375 15354.316375

                             ****ORCA TERMINATED NORMALLY****
TOTAL RUN TIME: 0 days 0 hours 2 minutes 2 seconds 431 msec
