                         Program Version 4.2.0 -  RELEASE  -
|  1> #
|  2> # 06_ScS tpssh/aug-cc-pvtz
|  3> #
|  4> ! tpssh d3bj aug-cc-pvtz def2/jk grid4 nofinalgrid
|  5>
|  6> *xyz 0 2
|  7>   Sc  0.00000000000000      0.00000000000000     -0.07079618847288
|  8>   S   0.00000000000000      0.00000000000000      2.07079618847288
|  9> *
| 10>
| 11> %pal
| 12> nprocs 24
| 13> end
| 14>
| 15>
| 16>                          ****END OF INPUT****

CARTESIAN COORDINATES (ANGSTROEM)
---------------------------------
  Sc     0.000000    0.000000   -0.070796
  S      0.000000    0.000000    2.070796

 Total Charge           Charge          ....    0
 Multiplicity           Mult            ....    2
 Number of Electrons    NEL             ....   37
 Basis Dimension        Dim             ....  143

ORBITAL ENERGIES
----------------
                 SPIN UP ORBITALS
  NO   OCC          E(Eh)            E(eV)
   0   1.0000    -161.542560     -4395.7965
   1   1.0000     -88.677769     -2413.0448
   2   1.0000     -17.522641      -476.8153
   3   1.0000     -14.429638      -392.6504
   4   1.0000     -14.429638      -392.6504
   5   1.0000     -14.420793      -392.4097
   6   1.0000      -7.804954      -212.3836
   7   1.0000      -5.752248      -156.5266
   8   1.0000      -5.752248      -156.5266
   9   1.0000      -5.751296      -156.5007
  10   1.0000      -2.088027       -56.8181
  11   1.0000      -1.290440       -35.1147
  12   1.0000      -1.290440       -35.1147
  13   1.0000      -1.282061       -34.8867
  14   1.0000      -0.590450       -16.0670
  15   1.0000      -0.243403        -6.6233
  16   1.0000      -0.227712        -6.1964
  17   1.0000      -0.227712        -6.1964
  18   1.0000      -0.168854        -4.5947
  19   0.0000      -0.107526        -2.9259
  20   0.0000      -0.107526        -2.9259
  21   0.0000      -0.089369        -2.4319
  22   0.0000      -0.089369        -2.4319
  23   0.0000      -0.081669        -2.2223

                 SPIN DOWN ORBITALS
  NO   OCC          E(Eh)            E(eV)
   0   1.0000    -161.541881     -4395.7781
   1   1.0000     -88.678079     -2413.0532
   2   1.0000     -17.519819      -476.7385
   3   1.0000     -14.427804      -392.6005
   4   1.0000     -14.427804      -392.6005
   5   1.0000     -14.417432      -392.3183
   6   1.0000      -7.805224      -212.3910
   7   1.0000      -5.752687      -156.5386
   8   1.0000      -5.752687      -156.5386
   9   1.0000      -5.751742      -156.5129
  10   1.0000      -2.077580       -56.5338
  11   1.0000      -1.283196       -34.9175
  12   1.0000      -1.283196       -34.9175
  13   1.0000      -1.262814       -34.3629
  14   1.0000      -0.592042       -16.1103
  15   1.0000      -0.240577        -6.5464
  16   1.0000      -0.227796        -6.1986
  17   1.0000      -0.227796        -6.1986
  18   0.0000      -0.119351        -3.2477
  19   0.0000      -0.091670        -2.4945
  20   0.0000      -0.091667        -2.4944
  21   0.0000      -0.076639        -2.0854
  22   0.0000      -0.076639        -2.0854

MULLIKEN ATOMIC CHARGES AND SPIN POPULATIONS
--------------------------------------------
   0 Sc:    0.308639    1.031797
   1 S :   -0.308639   -0.031797
Sum of atomic charges         :   -0.0000000

LOEWDIN ATOMIC CHARGES AND SPIN POPULATIONS
-------------------------------------------
   0 Sc:    0.093938    0.945672
   1 S :   -0.093938    0.054328

  Mayer bond orders larger than 0.100000
B(  0-Sc,  1-S ) :   2.5529

Dispersion correction           -0.001900242
FINAL SINGLE POINT ENERGY     -1158.964176273869

DIPOLE MOMENT
-------------
                                X             Y             Z
Electronic contribution:      0.00000       0.00000      -4.53329
Nuclear contribution   :      0.00000       0.00000       2.42233
                        -----------------------------------------
Total Dipole Moment    :      0.00000       0.00000      -2.11096
                        -----------------------------------------
Magnitude (a.u.)       :      2.11096
Magnitude (Debye)      :      5.36563

Rotational constants in cm-1:     0.000000     0.196398     0.196398
Rotational constants in MHz :     0.000000  5887.862686  5887.862686

                             ****ORCA TERMINATED NORMALLY****
TOTAL RUN TIME: 0 days 0 hours 2 minutes 21 seconds 867 msec
