                         Program Version 4.2.0 -  RELEASE  -
|  1> #
|  2> # 07_TiH tpssh/aug-cc-pvtz
|  3> #
|  4> ! tpssh d3bj aug-cc-pvtz def2/jk grid4 nofinalgrid
|  5>
|  6> *xyz 0 4
|  7>   Ti  0.00000000000000      0.00000000000000      0.11662089429905
|  8>   H   0.00000000000000      0.00000000000000      1.88337910570095
|  9> *
| 10>
| 11> %pal
| 12> nprocs 24
| 13> end
| 14>
| 15>
| 16>                          ****END OF INPUT****

CARTESIAN COORDINATES (ANGSTROEM)
---------------------------------
  Ti     0.000000    0.000000    0.116621
  H      0.000000    0.000000    1.883379

 Total Charge           Charge          ....    0
 Multiplicity           Mult            ....    4
 Number of Electrons    NEL             ....   23
 Basis Dimension        Dim             ....  116

ORBITAL ENERGIES
----------------
                 SPIN UP ORBITALS
  NO   OCC          E(Eh)            E(eV)
   0   1.0000    -178.643438     -4861.1351
   1   1.0000     -19.730225      -536.8867
   2   1.0000     -16.427839      -447.0242
   3   1.0000     -16.427839      -447.0242
   4   1.0000     -16.411696      -446.5849
   5   1.0000      -2.332056       -63.4585
   6   1.0000      -1.456614       -39.6365
   7   1.0000      -1.456614       -39.6365
   8   1.0000      -1.441978       -39.2382
   9   1.0000      -0.251860        -6.8534
  10   1.0000      -0.174881        -4.7587
  11   1.0000      -0.174881        -4.7587
  12   1.0000      -0.154941        -4.2162
  13   0.0000      -0.113248        -3.0816
  14   0.0000      -0.113248        -3.0816
  15   0.0000      -0.061394        -1.6706
  16   0.0000      -0.048063        -1.3079
  17   0.0000      -0.048063        -1.3079

                 SPIN DOWN ORBITALS
  NO   OCC          E(Eh)            E(eV)
   0   1.0000    -178.642650     -4861.1136
   1   1.0000     -19.708684      -536.3005
   2   1.0000     -16.413091      -446.6229
   3   1.0000     -16.413091      -446.6229
   4   1.0000     -16.387088      -445.9153
   5   1.0000      -2.260809       -61.5198
   6   1.0000      -1.398066       -38.0433
   7   1.0000      -1.398066       -38.0433
   8   1.0000      -1.330233       -36.1975
   9   1.0000      -0.235738        -6.4147
  10   0.0000      -0.095672        -2.6034
  11   0.0000      -0.070387        -1.9153
  12   0.0000      -0.070387        -1.9153
  13   0.0000      -0.034634        -0.9424
  14   0.0000      -0.034634        -0.9424

MULLIKEN ATOMIC CHARGES AND SPIN POPULATIONS
--------------------------------------------
   0 Ti:    0.138595    3.061762
   1 H :   -0.138595   -0.061762
Sum of atomic charges         :    0.0000000

LOEWDIN ATOMIC CHARGES AND SPIN POPULATIONS
-------------------------------------------
   0 Ti:    0.735675    2.785921
   1 H :   -0.735675    0.214079

  Mayer bond orders larger than 0.100000
B(  0-Ti,  1-H ) :   0.9413

Dispersion correction           -0.000604553
FINAL SINGLE POINT ENERGY      -849.963655935573

DIPOLE MOMENT
-------------
                                X             Y             Z
Electronic contribution:      0.00000       0.00000      -2.56276
Nuclear contribution   :      0.00000       0.00000       1.75604
                        -----------------------------------------
Total Dipole Moment    :      0.00000       0.00000      -0.80672
                        -----------------------------------------
Magnitude (a.u.)       :      0.80672
Magnitude (Debye)      :      2.05051

Rotational constants in cm-1:     0.000000     5.470494     5.470494
Rotational constants in MHz :     0.000000 164001.275229 164001.275229

                             ****ORCA TERMINATED NORMALLY****
TOTAL RUN TIME: 0 days 0 hours 1 minutes 51 seconds 340 msec
