                         Program Version 4.2.0 -  RELEASE  -
|  1> #
|  2> # 08_TiF tpssh/aug-cc-pvtz
|  3> #
|  4> ! tpssh d3bj aug-cc-pvtz def2/jk grid4 nofinalgrid
|  5>
|  6> *xyz 0 4
|  7>   Ti  0.00000000000000      0.00000000000000      0.11041057480115
|  8>   F   0.00000000000000      0.00000000000000      1.88958942519885
|  9> *
| 10>
| 11> %pal
| 12> nprocs 24
| 13> end
| 14>
| 15>
| 16>                          ****END OF INPUT****

CARTESIAN COORDINATES (ANGSTROEM)
---------------------------------
  Ti     0.000000    0.000000    0.110411
  F      0.000000    0.000000    1.889589

 Total Charge           Charge          ....    0
 Multiplicity           Mult            ....    4
 Number of Electrons    NEL             ....   31
 Basis Dimension        Dim             ....  139

ORBITAL ENERGIES
----------------
                 SPIN UP ORBITALS
  NO   OCC          E(Eh)            E(eV)
   0   1.0000    -178.624899     -4860.6306
   1   1.0000     -24.552511      -668.1078
   2   1.0000     -19.710521      -536.3505
   3   1.0000     -16.411906      -446.5907
   4   1.0000     -16.398397      -446.2231
   5   1.0000     -16.398397      -446.2231
   6   1.0000      -2.313264       -62.9471
   7   1.0000      -1.451970       -39.5101
   8   1.0000      -1.429869       -38.9087
   9   1.0000      -1.429869       -38.9087
  10   1.0000      -1.077854       -29.3299
  11   1.0000      -0.385737       -10.4964
  12   1.0000      -0.365191        -9.9374
  13   1.0000      -0.365191        -9.9374
  14   1.0000      -0.166237        -4.5235
  15   1.0000      -0.143570        -3.9067
  16   1.0000      -0.143569        -3.9067
  17   0.0000      -0.077742        -2.1155
  18   0.0000      -0.077742        -2.1155
  19   0.0000      -0.074600        -2.0300
  20   0.0000      -0.023834        -0.6485
  21   0.0000      -0.023834        -0.6485

                 SPIN DOWN ORBITALS
  NO   OCC          E(Eh)            E(eV)
   0   1.0000    -178.624112     -4860.6092
   1   1.0000     -24.554651      -668.1660
   2   1.0000     -19.689385      -535.7754
   3   1.0000     -16.404400      -446.3864
   4   1.0000     -16.375728      -445.6062
   5   1.0000     -16.375728      -445.6062
   6   1.0000      -2.242858       -61.0313
   7   1.0000      -1.420871       -38.6639
   8   1.0000      -1.332630       -36.2627
   9   1.0000      -1.332630       -36.2627
  10   1.0000      -1.080173       -29.3930
  11   1.0000      -0.385037       -10.4774
  12   1.0000      -0.366549        -9.9743
  13   1.0000      -0.366549        -9.9743
  14   0.0000      -0.079977        -2.1763
  15   0.0000      -0.032087        -0.8731
  16   0.0000      -0.032087        -0.8731
  17   0.0000      -0.029318        -0.7978
  18   0.0000      -0.002507        -0.0682

MULLIKEN ATOMIC CHARGES AND SPIN POPULATIONS
--------------------------------------------
   0 Ti:    0.571739    3.043720
   1 F :   -0.571739   -0.043720
Sum of atomic charges         :   -0.0000000

LOEWDIN ATOMIC CHARGES AND SPIN POPULATIONS
-------------------------------------------
   0 Ti:    0.246270    2.956706
   1 F :   -0.246270    0.043294

  Mayer bond orders larger than 0.100000
B(  0-Ti,  1-F ) :   0.8490

Dispersion correction           -0.000568339
FINAL SINGLE POINT ENERGY      -949.357990405723

DIPOLE MOMENT
-------------
                                X             Y             Z
Electronic contribution:      0.00000      -0.00000      -1.94230
Nuclear contribution   :      0.00000       0.00000       0.66059
                        -----------------------------------------
Total Dipole Moment    :      0.00000      -0.00000      -1.28170
                        -----------------------------------------
Magnitude (a.u.)       :      1.28170
Magnitude (Debye)      :      3.25783

Rotational constants in cm-1:     0.000000     0.391496     0.391496
Rotational constants in MHz :     0.000000 11736.757371 11736.757371

                             ****ORCA TERMINATED NORMALLY****
TOTAL RUN TIME: 0 days 0 hours 1 minutes 43 seconds 294 msec
