                         Program Version 4.2.0 -  RELEASE  -
|  1> #
|  2> # 09_TiCl tpssh/aug-cc-pvtz
|  3> #
|  4> ! tpssh d3bj aug-cc-pvtz def2/jk grid4 nofinalgrid
|  5>
|  6> *xyz 0 4
|  7>   Ti  0.00000000000000      0.00000000000000     -0.11680209456005
|  8>   Cl  0.00000000000000      0.00000000000000      2.11680209456005
|  9> *
| 10>
| 11> %pal
| 12> nprocs 24
| 13> end
| 14>
| 15>
| 16>                          ****END OF INPUT****

CARTESIAN COORDINATES (ANGSTROEM)
---------------------------------
  Ti     0.000000    0.000000   -0.116802
  Cl     0.000000    0.000000    2.116802

 Total Charge           Charge          ....    0
 Multiplicity           Mult            ....    4
 Number of Electrons    NEL             ....   39
 Basis Dimension        Dim             ....  143

ORBITAL ENERGIES
----------------
                 SPIN UP ORBITALS
  NO   OCC          E(Eh)            E(eV)
   0   1.0000    -178.620103     -4860.5001
   1   1.0000    -101.358983     -2758.1181
   2   1.0000     -19.701556      -536.1066
   3   1.0000     -16.401820      -446.3162
   4   1.0000     -16.390539      -446.0092
   5   1.0000     -16.390539      -446.0092
   6   1.0000      -9.338757      -254.1205
   7   1.0000      -7.081918      -192.7088
   8   1.0000      -7.080866      -192.6801
   9   1.0000      -7.080866      -192.6801
  10   1.0000      -2.308241       -62.8104
  11   1.0000      -1.440659       -39.2023
  12   1.0000      -1.425243       -38.7828
  13   1.0000      -1.425243       -38.7828
  14   1.0000      -0.742231       -20.1971
  15   1.0000      -0.318824        -8.6757
  16   1.0000      -0.287524        -7.8239
  17   1.0000      -0.287524        -7.8239
  18   1.0000      -0.169674        -4.6171
  19   1.0000      -0.142456        -3.8764
  20   1.0000      -0.142454        -3.8764
  21   0.0000      -0.088244        -2.4012
  22   0.0000      -0.080951        -2.2028
  23   0.0000      -0.080951        -2.2028
  24   0.0000      -0.029115        -0.7923
  25   0.0000      -0.029115        -0.7923

                 SPIN DOWN ORBITALS
  NO   OCC          E(Eh)            E(eV)
   0   1.0000    -178.619514     -4860.4841
   1   1.0000    -101.359581     -2758.1344
   2   1.0000     -19.679164      -535.4973
   3   1.0000     -16.392090      -446.0514
   4   1.0000     -16.367413      -445.3800
   5   1.0000     -16.367413      -445.3800
   6   1.0000      -9.339254      -254.1340
   7   1.0000      -7.082918      -192.7360
   8   1.0000      -7.081548      -192.6987
   9   1.0000      -7.081548      -192.6987
  10   1.0000      -2.232785       -60.7572
  11   1.0000      -1.396045       -37.9883
  12   1.0000      -1.326452       -36.0946
  13   1.0000      -1.326452       -36.0946
  14   1.0000      -0.744746       -20.2656
  15   1.0000      -0.315800        -8.5934
  16   1.0000      -0.287562        -7.8250
  17   1.0000      -0.287562        -7.8250
  18   0.0000      -0.085344        -2.3223
  19   0.0000      -0.041470        -1.1285
  20   0.0000      -0.041470        -1.1285
  21   0.0000      -0.040247        -1.0952
  22   0.0000      -0.004171        -0.1135

MULLIKEN ATOMIC CHARGES AND SPIN POPULATIONS
--------------------------------------------
   0 Ti:    0.384039    3.029221
   1 Cl:   -0.384039   -0.029221
Sum of atomic charges         :   -0.0000000

LOEWDIN ATOMIC CHARGES AND SPIN POPULATIONS
-------------------------------------------
   0 Ti:   -0.192971    2.946527
   1 Cl:    0.192971    0.053473

  Mayer bond orders larger than 0.100000
B(  0-Ti,  1-Cl) :   1.1964

Dispersion correction           -0.001646202
FINAL SINGLE POINT ENERGY     -1309.714729986308

DIPOLE MOMENT
-------------
                                X             Y             Z
Electronic contribution:     -0.00000      -0.00000      -3.63138
Nuclear contribution   :      0.00000       0.00000       1.73863
                        -----------------------------------------
Total Dipole Moment    :     -0.00000      -0.00000      -1.89274
                        -----------------------------------------
Magnitude (a.u.)       :      1.89274
Magnitude (Debye)      :      4.81097

Rotational constants in cm-1:     0.000000     0.165851     0.165851
Rotational constants in MHz :     0.000000  4972.077671  4972.077671

                             ****ORCA TERMINATED NORMALLY****
TOTAL RUN TIME: 0 days 0 hours 1 minutes 48 seconds 555 msec
