                         Program Version 4.2.0 -  RELEASE  -
|  1> #
|  2> # 11_TiO tpssh/aug-cc-pvtz
|  3> #
|  4> ! tpssh d3bj aug-cc-pvtz def2/jk grid4 nofinalgrid
|  5>
|  6> *xyz 0 3
|  7>   Ti  0.00000000000000      0.00000000000000      0.18878211244980
|  8>   O   0.00000000000000      0.00000000000000      1.81121788755020
|  9> *
| 10>
| 11> %pal
| 12> nprocs 24
| 13> end
| 14>
| 15>
| 16>                          ****END OF INPUT****

CARTESIAN COORDINATES (ANGSTROEM)
---------------------------------
  Ti     0.000000    0.000000    0.188782
  O      0.000000    0.000000    1.811218

 Total Charge           Charge          ....    0
 Multiplicity           Mult            ....    3
 Number of Electrons    NEL             ....   30
 Basis Dimension        Dim             ....  139

ORBITAL ENERGIES
----------------
                 SPIN UP ORBITALS
  NO   OCC          E(Eh)            E(eV)
   0   1.0000    -178.658340     -4861.5406
   1   1.0000     -19.746050      -537.3173
   2   1.0000     -19.024601      -517.6857
   3   1.0000     -16.438702      -447.3198
   4   1.0000     -16.438702      -447.3198
   5   1.0000     -16.437981      -447.3002
   6   1.0000      -2.333983       -63.5109
   7   1.0000      -1.464411       -39.8487
   8   1.0000      -1.454175       -39.5701
   9   1.0000      -1.454175       -39.5701
  10   1.0000      -0.828415       -22.5423
  11   1.0000      -0.299364        -8.1461
  12   1.0000      -0.295917        -8.0523
  13   1.0000      -0.295917        -8.0523
  14   1.0000      -0.193074        -5.2538
  15   1.0000      -0.170224        -4.6320
  16   0.0000      -0.087100        -2.3701
  17   0.0000      -0.079133        -2.1533
  18   0.0000      -0.079133        -2.1533
  19   0.0000      -0.057487        -1.5643
  20   0.0000      -0.008033        -0.2186

                 SPIN DOWN ORBITALS
  NO   OCC          E(Eh)            E(eV)
   0   1.0000    -178.657559     -4861.5193
   1   1.0000     -19.733114      -536.9653
   2   1.0000     -19.028988      -517.8051
   3   1.0000     -16.432308      -447.1458
   4   1.0000     -16.425491      -446.9603
   5   1.0000     -16.425491      -446.9603
   6   1.0000      -2.291608       -62.3578
   7   1.0000      -1.440812       -39.2065
   8   1.0000      -1.399264       -38.0759
   9   1.0000      -1.399264       -38.0759
  10   1.0000      -0.836067       -22.7505
  11   1.0000      -0.298067        -8.1108
  12   1.0000      -0.298067        -8.1108
  13   1.0000      -0.297839        -8.1046
  14   0.0000      -0.101284        -2.7561
  15   0.0000      -0.069679        -1.8961
  16   0.0000      -0.045732        -1.2444
  17   0.0000      -0.045513        -1.2385
  18   0.0000      -0.045513        -1.2385

MULLIKEN ATOMIC CHARGES AND SPIN POPULATIONS
--------------------------------------------
   0 Ti:    0.557633    2.123321
   1 O :   -0.557633   -0.123321
Sum of atomic charges         :   -0.0000000

LOEWDIN ATOMIC CHARGES AND SPIN POPULATIONS
-------------------------------------------
   0 Ti:    0.591604    1.978836
   1 O :   -0.591604    0.021164

  Mayer bond orders larger than 0.100000
B(  0-Ti,  1-O ) :   2.3046

Dispersion correction           -0.000789604
FINAL SINGLE POINT ENERGY      -924.737298127777

DIPOLE MOMENT
-------------
                                X             Y             Z
Electronic contribution:     -0.00000      -0.00000      -2.88266
Nuclear contribution   :      0.00000       0.00000       1.49807
                        -----------------------------------------
Total Dipole Moment    :     -0.00000      -0.00000      -1.38459
                        -----------------------------------------
Magnitude (a.u.)       :      1.38459
Magnitude (Debye)      :      3.51934

Rotational constants in cm-1:     0.000000     0.533983     0.533983
Rotational constants in MHz :     0.000000 16008.413204 16008.413204

                             ****ORCA TERMINATED NORMALLY****
TOTAL RUN TIME: 0 days 0 hours 3 minutes 1 seconds 457 msec
