                         Program Version 4.2.0 -  RELEASE  -
|  1> #
|  2> # 13_VH tpssh/aug-cc-pvtz
|  3> #
|  4> ! tpssh d3bj aug-cc-pvtz def2/jk grid4 nofinalgrid
|  5>
|  6> *xyz 0 5
|  7>   V   0.00000000000000      0.00000000000000      0.15541431667182
|  8>   H   0.00000000000000      0.00000000000000      1.84458568332818
|  9> *
| 10>
| 11> %pal
| 12> nprocs 24
| 13> end
| 14>
| 15>
| 16>                          ****END OF INPUT****

CARTESIAN COORDINATES (ANGSTROEM)
---------------------------------
  V      0.000000    0.000000    0.155414
  H      0.000000    0.000000    1.844586

 Total Charge           Charge          ....    0
 Multiplicity           Mult            ....    5
 Number of Electrons    NEL             ....   24
 Basis Dimension        Dim             ....  116

ORBITAL ENERGIES
----------------
                 SPIN UP ORBITALS
  NO   OCC          E(Eh)            E(eV)
   0   1.0000    -196.532812     -5347.9297
   1   1.0000     -21.966479      -597.7383
   2   1.0000     -18.454653      -502.1766
   3   1.0000     -18.443419      -501.8709
   4   1.0000     -18.443419      -501.8709
   5   1.0000      -2.501968       -68.0820
   6   1.0000      -1.545508       -42.0554
   7   1.0000      -1.545263       -42.0487
   8   1.0000      -1.545263       -42.0487
   9   1.0000      -0.227181        -6.1819
  10   1.0000      -0.129458        -3.5227
  11   1.0000      -0.129458        -3.5227
  12   1.0000      -0.107528        -2.9260
  13   1.0000      -0.107528        -2.9260
  14   0.0000      -0.099608        -2.7105
  15   0.0000      -0.037427        -1.0184
  16   0.0000      -0.023758        -0.6465
  17   0.0000      -0.023758        -0.6465
  18   0.0000       0.005914         0.1609

                 SPIN DOWN ORBITALS
  NO   OCC          E(Eh)            E(eV)
   0   1.0000    -196.532829     -5347.9302
   1   1.0000     -21.926408      -596.6479
   2   1.0000     -18.426847      -501.4200
   3   1.0000     -18.407166      -500.8844
   4   1.0000     -18.407166      -500.8844
   5   1.0000      -2.374302       -64.6080
   6   1.0000      -1.437432       -39.1145
   7   1.0000      -1.395331       -37.9689
   8   1.0000      -1.395331       -37.9689
   9   1.0000      -0.221763        -6.0345
  10   0.0000      -0.059341        -1.6148
  11   0.0000      -0.000940        -0.0256
  12   0.0000      -0.000940        -0.0256
  13   0.0000       0.000474         0.0129
  14   0.0000       0.017647         0.4802

MULLIKEN ATOMIC CHARGES AND SPIN POPULATIONS
--------------------------------------------
   0 V :    0.194233    4.147378
   1 H :   -0.194233   -0.147378
Sum of atomic charges         :   -0.0000000

LOEWDIN ATOMIC CHARGES AND SPIN POPULATIONS
-------------------------------------------
   0 V :    0.673802    3.899654
   1 H :   -0.673802    0.100346

  Mayer bond orders larger than 0.100000
B(  0-V ,  1-H ) :   0.9482

Dispersion correction           -0.000592009
FINAL SINGLE POINT ENERGY      -944.515389844540

DIPOLE MOMENT
-------------
                                X             Y             Z
Electronic contribution:      0.00000       0.00000      -3.19325
Nuclear contribution   :      0.00000       0.00000       1.70553
                        -----------------------------------------
Total Dipole Moment    :      0.00000       0.00000      -1.48772
                        -----------------------------------------
Magnitude (a.u.)       :      1.48772
Magnitude (Debye)      :      3.78148

Rotational constants in cm-1:     0.000000     5.977214     5.977214
Rotational constants in MHz :     0.000000 179192.381350 179192.381350

                             ****ORCA TERMINATED NORMALLY****
TOTAL RUN TIME: 0 days 0 hours 1 minutes 20 seconds 427 msec
