                         Program Version 4.2.0 -  RELEASE  -
|  1> #
|  2> # 14_VF tpssh/aug-cc-pvtz
|  3> #
|  4> ! tpssh d3bj aug-cc-pvtz def2/jk grid4 nofinalgrid
|  5>
|  6> *xyz 0 5
|  7>   V   0.00000000000000      0.00000000000000      0.09137228252025
|  8>   F   0.00000000000000      0.00000000000000      1.90862771747975
|  9> *
| 10>
| 11> %pal
| 12> nprocs 24
| 13> end
| 14>
| 15>
| 16>                          ****END OF INPUT****

CARTESIAN COORDINATES (ANGSTROEM)
---------------------------------
  V      0.000000    0.000000    0.091372
  F      0.000000    0.000000    1.908628

 Total Charge           Charge          ....    0
 Multiplicity           Mult            ....    5
 Number of Electrons    NEL             ....   32
 Basis Dimension        Dim             ....  139

ORBITAL ENERGIES
----------------
                 SPIN UP ORBITALS
  NO   OCC          E(Eh)            E(eV)
   0   1.0000    -196.633082     -5350.6582
   1   1.0000     -24.536000      -667.6585
   2   1.0000     -22.080959      -600.8534
   3   1.0000     -18.565259      -505.1864
   4   1.0000     -18.560292      -505.0512
   5   1.0000     -18.555187      -504.9123
   6   1.0000      -2.601509       -70.7907
   7   1.0000      -1.647299       -44.8253
   8   1.0000      -1.640312       -44.6351
   9   1.0000      -1.634797       -44.4851
  10   1.0000      -1.066771       -29.0283
  11   1.0000      -0.374713       -10.1965
  12   1.0000      -0.353272        -9.6130
  13   1.0000      -0.347220        -9.4483
  14   1.0000      -0.198953        -5.4138
  15   1.0000      -0.191192        -5.2026
  16   1.0000      -0.190894        -5.1945
  17   1.0000      -0.174433        -4.7466
  18   0.0000      -0.103473        -2.8156
  19   0.0000      -0.089360        -2.4316
  20   0.0000      -0.033257        -0.9050
  21   0.0000      -0.029586        -0.8051
  22   0.0000       0.002370         0.0645

                 SPIN DOWN ORBITALS
  NO   OCC          E(Eh)            E(eV)
   0   1.0000    -196.632062     -5350.6304
   1   1.0000     -24.536955      -667.6845
   2   1.0000     -22.043252      -599.8274
   3   1.0000     -18.541431      -504.5380
   4   1.0000     -18.527338      -504.1545
   5   1.0000     -18.517354      -503.8828
   6   1.0000      -2.485852       -67.6435
   7   1.0000      -1.553817       -42.2815
   8   1.0000      -1.514362       -41.2079
   9   1.0000      -1.489063       -40.5195
  10   1.0000      -1.067247       -29.0413
  11   1.0000      -0.371023       -10.0960
  12   1.0000      -0.348589        -9.4856
  13   1.0000      -0.341925        -9.3043
  14   0.0000      -0.082446        -2.2435
  15   0.0000      -0.046453        -1.2640
  16   0.0000      -0.029520        -0.8033
  17   0.0000      -0.017898        -0.4870
  18   0.0000      -0.016094        -0.4379

MULLIKEN ATOMIC CHARGES AND SPIN POPULATIONS
--------------------------------------------
   0 V :    0.568627    4.023567
   1 F :   -0.568627   -0.023567
Sum of atomic charges         :   -0.0000000

LOEWDIN ATOMIC CHARGES AND SPIN POPULATIONS
-------------------------------------------
   0 V :    0.330924    3.908507
   1 F :   -0.330924    0.091493

  Mayer bond orders larger than 0.100000
B(  0-V ,  1-F ) :   0.8489

Dispersion correction           -0.000599286
FINAL SINGLE POINT ENERGY     -1043.907910408112

DIPOLE MOMENT
-------------
                                X             Y             Z
Electronic contribution:      0.00000       0.00000      -2.40927
Nuclear contribution   :      0.00000       0.00000       1.05599
                        -----------------------------------------
Total Dipole Moment    :      0.00000       0.00000      -1.35328
                        -----------------------------------------
Magnitude (a.u.)       :      1.35328
Magnitude (Debye)      :      3.43977

Rotational constants in cm-1:     0.000000     0.368902     0.368902
Rotational constants in MHz :     0.000000 11059.411965 11059.411965

                             ****ORCA TERMINATED NORMALLY****
TOTAL RUN TIME: 0 days 0 hours 2 minutes 6 seconds 653 msec
