                         Program Version 4.2.0 -  RELEASE  -
|  1> #
|  2> # 15_VCl tpssh/aug-cc-pvtz
|  3> #
|  4> ! tpssh d3bj aug-cc-pvtz def2/jk grid4 nofinalgrid
|  5>
|  6> *xyz 0 5
|  7>   V   0.00000000000000      0.00000000000000     -0.10591307408469
|  8>   Cl  0.00000000000000      0.00000000000000      2.10591307408469
|  9> *
| 10>
| 11> %pal
| 12> nprocs 24
| 13> end
| 14>
| 15>
| 16>                          ****END OF INPUT****

CARTESIAN COORDINATES (ANGSTROEM)
---------------------------------
  V      0.000000    0.000000   -0.105913
  Cl     0.000000    0.000000    2.105913

 Total Charge           Charge          ....    0
 Multiplicity           Mult            ....    5
 Number of Electrons    NEL             ....   40
 Basis Dimension        Dim             ....  143

ORBITAL ENERGIES
----------------
                 SPIN UP ORBITALS
  NO   OCC          E(Eh)            E(eV)
   0   1.0000    -196.625334     -5350.4474
   1   1.0000    -101.358481     -2758.1045
   2   1.0000     -22.069689      -600.5468
   3   1.0000     -18.552983      -504.8523
   4   1.0000     -18.549847      -504.7670
   5   1.0000     -18.545075      -504.6371
   6   1.0000      -9.337931      -254.0980
   7   1.0000      -7.081361      -192.6936
   8   1.0000      -7.080343      -192.6659
   9   1.0000      -7.079640      -192.6468
  10   1.0000      -2.594584       -70.6022
  11   1.0000      -1.640196       -44.6320
  12   1.0000      -1.634557       -44.4786
  13   1.0000      -1.627786       -44.2943
  14   1.0000      -0.742456       -20.2033
  15   1.0000      -0.324194        -8.8218
  16   1.0000      -0.293100        -7.9757
  17   1.0000      -0.288759        -7.8575
  18   1.0000      -0.201328        -5.4784
  19   1.0000      -0.189174        -5.1477
  20   1.0000      -0.188353        -5.1254
  21   1.0000      -0.173054        -4.7090
  22   0.0000      -0.106045        -2.8856
  23   0.0000      -0.099735        -2.7139
  24   0.0000      -0.035168        -0.9570
  25   0.0000      -0.031359        -0.8533
  26   0.0000       0.000680         0.0185

                 SPIN DOWN ORBITALS
  NO   OCC          E(Eh)            E(eV)
   0   1.0000    -196.624550     -5350.4260
   1   1.0000    -101.358941     -2758.1170
   2   1.0000     -22.031067      -599.4958
   3   1.0000     -18.527133      -504.1489
   4   1.0000     -18.516948      -503.8718
   5   1.0000     -18.506948      -503.5997
   6   1.0000      -9.338306      -254.1082
   7   1.0000      -7.082443      -192.7231
   8   1.0000      -7.081186      -192.6889
   9   1.0000      -7.079527      -192.6437
  10   1.0000      -2.474924       -67.3461
  11   1.0000      -1.535097       -41.7721
  12   1.0000      -1.507464       -41.0202
  13   1.0000      -1.480850       -40.2960
  14   1.0000      -0.744000       -20.2453
  15   1.0000      -0.317009        -8.6262
  16   1.0000      -0.288372        -7.8470
  17   1.0000      -0.283362        -7.7107
  18   0.0000      -0.087502        -2.3811
  19   0.0000      -0.052031        -1.4158
  20   0.0000      -0.037609        -1.0234
  21   0.0000      -0.023956        -0.6519
  22   0.0000      -0.017325        -0.4714

MULLIKEN ATOMIC CHARGES AND SPIN POPULATIONS
--------------------------------------------
   0 V :    0.396793    4.039649
   1 Cl:   -0.396793   -0.039649
Sum of atomic charges         :   -0.0000000

LOEWDIN ATOMIC CHARGES AND SPIN POPULATIONS
-------------------------------------------
   0 V :   -0.051985    3.906407
   1 Cl:    0.051985    0.093593

  Mayer bond orders larger than 0.100000
B(  0-V ,  1-Cl) :   1.1248

Dispersion correction           -0.001752881
FINAL SINGLE POINT ENERGY     -1404.273636280327

DIPOLE MOMENT
-------------
                                X             Y             Z
Electronic contribution:     -0.00000      -0.00000      -4.16711
Nuclear contribution   :      0.00000       0.00000       2.44617
                        -----------------------------------------
Total Dipole Moment    :     -0.00000      -0.00000      -1.72094
                        -----------------------------------------
Magnitude (a.u.)       :      1.72094
Magnitude (Debye)      :      4.37428

Rotational constants in cm-1:     0.000000     0.164840     0.164840
Rotational constants in MHz :     0.000000  4941.766851  4941.766851

                             ****ORCA TERMINATED NORMALLY****
TOTAL RUN TIME: 0 days 0 hours 2 minutes 44 seconds 763 msec
