                         Program Version 4.2.0 -  RELEASE  -
|  1> #
|  2> # 20_CrF tpssh/aug-cc-pvtz
|  3> #
|  4> ! tpssh d3bj aug-cc-pvtz def2/jk grid4 nofinalgrid
|  5>
|  6> *xyz 0 6
|  7>   Cr  0.00000000000000      0.00000000000000      0.10659678981823
|  8>   F   0.00000000000000      0.00000000000000      1.89340321018177
|  9> *
| 10>
| 11> %pal
| 12> nprocs 24
| 13> end
| 14>
| 15>
| 16>                          ****END OF INPUT****

CARTESIAN COORDINATES (ANGSTROEM)
---------------------------------
  Cr     0.000000    0.000000    0.106597
  F      0.000000    0.000000    1.893403

 Total Charge           Charge          ....    0
 Multiplicity           Mult            ....    6
 Number of Electrons    NEL             ....   33
 Basis Dimension        Dim             ....  139

ORBITAL ENERGIES
----------------
                 SPIN UP ORBITALS
  NO   OCC          E(Eh)            E(eV)
   0   1.0000    -215.483008     -5863.5908
   1   1.0000     -24.541157      -667.7988
   2   1.0000     -24.521269      -667.2576
   3   1.0000     -20.807848      -566.2103
   4   1.0000     -20.805913      -566.1577
   5   1.0000     -20.805913      -566.1577
   6   1.0000      -2.876039       -78.2610
   7   1.0000      -1.835734       -49.9529
   8   1.0000      -1.829597       -49.7859
   9   1.0000      -1.829597       -49.7859
  10   1.0000      -1.056486       -28.7484
  11   1.0000      -0.365244        -9.9388
  12   1.0000      -0.345196        -9.3933
  13   1.0000      -0.345196        -9.3933
  14   1.0000      -0.217267        -5.9121
  15   1.0000      -0.217267        -5.9121
  16   1.0000      -0.208165        -5.6645
  17   1.0000      -0.208165        -5.6645
  18   1.0000      -0.191296        -5.2054
  19   0.0000      -0.099564        -2.7093
  20   0.0000      -0.030362        -0.8262
  21   0.0000      -0.030362        -0.8262
  22   0.0000       0.003546         0.0965
  23   0.0000       0.009171         0.2496

                 SPIN DOWN ORBITALS
  NO   OCC          E(Eh)            E(eV)
   0   1.0000    -215.481846     -5863.5591
   1   1.0000     -24.521232      -667.2567
   2   1.0000     -24.484745      -666.2638
   3   1.0000     -20.766234      -565.0780
   4   1.0000     -20.755856      -564.7956
   5   1.0000     -20.755856      -564.7956
   6   1.0000      -2.708270       -73.6958
   7   1.0000      -1.675788       -45.6005
   8   1.0000      -1.646695       -44.8088
   9   1.0000      -1.646695       -44.8088
  10   1.0000      -1.054965       -28.7070
  11   1.0000      -0.361775        -9.8444
  12   1.0000      -0.329829        -8.9751
  13   1.0000      -0.329829        -8.9751
  14   0.0000      -0.079454        -2.1621
  15   0.0000      -0.018797        -0.5115
  16   0.0000      -0.010286        -0.2799
  17   0.0000      -0.010262        -0.2792
  18   0.0000      -0.010001        -0.2721

MULLIKEN ATOMIC CHARGES AND SPIN POPULATIONS
--------------------------------------------
   0 Cr:    0.569558    5.031306
   1 F :   -0.569558   -0.031306
Sum of atomic charges         :   -0.0000000

LOEWDIN ATOMIC CHARGES AND SPIN POPULATIONS
-------------------------------------------
   0 Cr:    0.382021    4.869782
   1 F :   -0.382021    0.130218

  Mayer bond orders larger than 0.100000
B(  0-Cr,  1-F ) :   0.7133

Dispersion correction           -0.000562429
FINAL SINGLE POINT ENERGY     -1144.413642407811

DIPOLE MOMENT
-------------
                                X             Y             Z
Electronic contribution:      0.00000      -0.00000      -2.11335
Nuclear contribution   :      0.00000       0.00000       0.57299
                        -----------------------------------------
Total Dipole Moment    :      0.00000      -0.00000      -1.54036
                        -----------------------------------------
Magnitude (a.u.)       :      1.54036
Magnitude (Debye)      :      3.91529

Rotational constants in cm-1:     0.000000     0.379469     0.379469
Rotational constants in MHz :     0.000000 11376.206933 11376.206933

                             ****ORCA TERMINATED NORMALLY****
TOTAL RUN TIME: 0 days 0 hours 1 minutes 40 seconds 182 msec
