                         Program Version 4.2.0 -  RELEASE  -
|  1> #
|  2> # 22_CrBr tpssh/aug-cc-pvtz
|  3> #
|  4> ! tpssh d3bj aug-cc-pvtz def2/jk grid4 nofinalgrid
|  5>
|  6> *xyz 0 6
|  7>   Cr  0.00000000000000      0.00000000000000     -0.17198862284832
|  8>   Br  0.00000000000000      0.00000000000000      2.17198862284831
|  9> *
| 10>
| 11> %pal
| 12> nprocs 24
| 13> end
| 14>
| 15>
| 16>                          ****END OF INPUT****

CARTESIAN COORDINATES (ANGSTROEM)
---------------------------------
  Cr     0.000000    0.000000   -0.171989
  Br     0.000000    0.000000    2.171989

 Total Charge           Charge          ....    0
 Multiplicity           Mult            ....    6
 Number of Electrons    NEL             ....   59
 Basis Dimension        Dim             ....  152

ORBITAL ENERGIES
----------------
                 SPIN UP ORBITALS
  NO   OCC          E(Eh)            E(eV)
   0   1.0000    -482.515665    -13129.9188
   1   1.0000    -215.470226     -5863.2429
   2   1.0000     -62.229316     -1693.3458
   3   1.0000     -56.013628     -1524.2083
   4   1.0000     -56.012741     -1524.1842
   5   1.0000     -56.012741     -1524.1842
   6   1.0000     -24.522773      -667.2986
   7   1.0000     -20.788878      -565.6941
   8   1.0000     -20.788878      -565.6941
   9   1.0000     -20.788412      -565.6815
  10   1.0000      -8.571594      -233.2449
  11   1.0000      -6.386913      -173.7967
  12   1.0000      -6.383624      -173.7072
  13   1.0000      -6.383624      -173.7072
  14   1.0000      -2.864168       -77.9380
  15   1.0000      -2.512302       -68.3632
  16   1.0000      -2.511258       -68.3348
  17   1.0000      -2.511258       -68.3348
  18   1.0000      -2.508626       -68.2632
  19   1.0000      -2.508581       -68.2620
  20   1.0000      -1.824303       -49.6418
  21   1.0000      -1.819189       -49.5027
  22   1.0000      -1.819189       -49.5027
  23   1.0000      -0.692764       -18.8511
  24   1.0000      -0.300181        -8.1683
  25   1.0000      -0.269810        -7.3419
  26   1.0000      -0.269810        -7.3419
  27   1.0000      -0.211689        -5.7603
  28   1.0000      -0.211688        -5.7603
  29   1.0000      -0.202406        -5.5077
  30   1.0000      -0.202406        -5.5077
  31   1.0000      -0.199387        -5.4256
  32   0.0000      -0.114613        -3.1188
  33   0.0000      -0.033420        -0.9094
  34   0.0000      -0.033420        -0.9094
  35   0.0000       0.001344         0.0366
  36   0.0000       0.006491         0.1766

                 SPIN DOWN ORBITALS
  NO   OCC          E(Eh)            E(eV)
   0   1.0000    -482.515866    -13129.9242
   1   1.0000    -215.469443     -5863.2216
   2   1.0000     -62.229368     -1693.3472
   3   1.0000     -56.014095     -1524.2210
   4   1.0000     -56.012747     -1524.1843
   5   1.0000     -56.012747     -1524.1843
   6   1.0000     -24.464853      -665.7225
   7   1.0000     -20.743509      -564.4596
   8   1.0000     -20.738606      -564.3262
   9   1.0000     -20.738606      -564.3262
  10   1.0000      -8.571858      -233.2521
  11   1.0000      -6.387835      -173.8218
  12   1.0000      -6.383633      -173.7075
  13   1.0000      -6.383633      -173.7075
  14   1.0000      -2.689862       -73.1949
  15   1.0000      -2.513012       -68.3825
  16   1.0000      -2.511778       -68.3489
  17   1.0000      -2.511778       -68.3489
  18   1.0000      -2.508539       -68.2608
  19   1.0000      -2.508495       -68.2596
  20   1.0000      -1.647795       -44.8388
  21   1.0000      -1.633211       -44.4419
  22   1.0000      -1.633211       -44.4419
  23   1.0000      -0.694484       -18.8979
  24   1.0000      -0.290869        -7.9149
  25   1.0000      -0.255664        -6.9570
  26   1.0000      -0.255664        -6.9570
  27   0.0000      -0.085702        -2.3321
  28   0.0000      -0.024954        -0.6790
  29   0.0000      -0.016882        -0.4594
  30   0.0000      -0.016882        -0.4594
  31   0.0000      -0.007426        -0.2021

MULLIKEN ATOMIC CHARGES AND SPIN POPULATIONS
--------------------------------------------
   0 Cr:    0.262734    5.123791
   1 Br:   -0.262734   -0.123791
Sum of atomic charges         :   -0.0000000

LOEWDIN ATOMIC CHARGES AND SPIN POPULATIONS
-------------------------------------------
   0 Cr:   -0.076105    4.910803
   1 Br:    0.076105    0.089197

  Mayer bond orders larger than 0.100000
B(  0-Cr,  1-Br) :   1.1552

Dispersion correction           -0.001866531
FINAL SINGLE POINT ENERGY     -3618.671056639581

DIPOLE MOMENT
-------------
                                X             Y             Z
Electronic contribution:      0.00000       0.00000       1.21109
Nuclear contribution   :      0.00000       0.00000      -3.27761
                        -----------------------------------------
Total Dipole Moment    :      0.00000       0.00000      -2.06652
                        -----------------------------------------
Magnitude (a.u.)       :      2.06652
Magnitude (Debye)      :      5.25268

Rotational constants in cm-1:     0.000000     0.097406     0.097406
Rotational constants in MHz :     0.000000  2920.152240  2920.152240

                             ****ORCA TERMINATED NORMALLY****
TOTAL RUN TIME: 0 days 0 hours 2 minutes 53 seconds 301 msec
