                         Program Version 4.2.0 -  RELEASE  -
|  1> #
|  2> # 23_CrO tpssh/aug-cc-pvtz
|  3> #
|  4> ! tpssh d3bj aug-cc-pvtz def2/jk grid4 nofinalgrid
|  5>
|  6> *xyz 0 5
|  7>   Cr  0.00000000000000      0.00000000000000      0.19264925280896
|  8>   O   0.00000000000000      0.00000000000000      1.80735074719104
|  9> *
| 10>
| 11> %pal
| 12> nprocs 24
| 13> end
| 14>
| 15>
| 16>                          ****END OF INPUT****

CARTESIAN COORDINATES (ANGSTROEM)
---------------------------------
  Cr     0.000000    0.000000    0.192649
  O      0.000000    0.000000    1.807351

 Total Charge           Charge          ....    0
 Multiplicity           Mult            ....    5
 Number of Electrons    NEL             ....   32
 Basis Dimension        Dim             ....  139

ORBITAL ENERGIES
----------------
                 SPIN UP ORBITALS
  NO   OCC          E(Eh)            E(eV)
   0   1.0000    -215.530782     -5864.8907
   1   1.0000     -24.594365      -669.2467
   2   1.0000     -20.862254      -567.6908
   3   1.0000     -20.861682      -567.6752
   4   1.0000     -20.854553      -567.4812
   5   1.0000     -19.035401      -517.9796
   6   1.0000      -2.910025       -79.1858
   7   1.0000      -1.868341       -50.8402
   8   1.0000      -1.865969       -50.7756
   9   1.0000      -1.858706       -50.5780
  10   1.0000      -0.845407       -23.0047
  11   1.0000      -0.329813        -8.9747
  12   1.0000      -0.329214        -8.9584
  13   1.0000      -0.305302        -8.3077
  14   1.0000      -0.247285        -6.7290
  15   1.0000      -0.247270        -6.7286
  16   1.0000      -0.199666        -5.4332
  17   1.0000      -0.188420        -5.1272
  18   0.0000      -0.129033        -3.5112
  19   0.0000      -0.088714        -2.4140
  20   0.0000      -0.024363        -0.6630
  21   0.0000      -0.019710        -0.5363
  22   0.0000       0.004180         0.1137

                 SPIN DOWN ORBITALS
  NO   OCC          E(Eh)            E(eV)
   0   1.0000    -215.529503     -5864.8559
   1   1.0000     -24.546762      -667.9514
   2   1.0000     -20.830760      -566.8338
   3   1.0000     -20.821195      -566.5735
   4   1.0000     -20.806967      -566.1864
   5   1.0000     -19.044392      -518.2242
   6   1.0000      -2.770582       -75.3914
   7   1.0000      -1.752873       -47.6981
   8   1.0000      -1.717807       -46.7439
   9   1.0000      -1.686337       -45.8876
  10   1.0000      -0.864049       -23.5120
  11   1.0000      -0.318678        -8.6717
  12   1.0000      -0.315641        -8.5890
  13   1.0000      -0.288424        -7.8484
  14   0.0000      -0.096097        -2.6149
  15   0.0000      -0.058942        -1.6039
  16   0.0000      -0.047893        -1.3032
  17   0.0000      -0.047257        -1.2859
  18   0.0000      -0.034245        -0.9319

MULLIKEN ATOMIC CHARGES AND SPIN POPULATIONS
--------------------------------------------
   0 Cr:    0.578919    4.293561
   1 O :   -0.578919   -0.293561
Sum of atomic charges         :    0.0000000

LOEWDIN ATOMIC CHARGES AND SPIN POPULATIONS
-------------------------------------------
   0 Cr:    0.565628    4.077669
   1 O :   -0.565628   -0.077669

  Mayer bond orders larger than 0.100000
B(  0-Cr,  1-O ) :   2.0690

Dispersion correction           -0.000777395
FINAL SINGLE POINT ENERGY     -1119.731076985152

DIPOLE MOMENT
-------------
                                X             Y             Z
Electronic contribution:      0.00000      -0.00000      -3.00387
Nuclear contribution   :      0.00000       0.00000       1.43702
                        -----------------------------------------
Total Dipole Moment    :      0.00000      -0.00000      -1.56684
                        -----------------------------------------
Magnitude (a.u.)       :      1.56684
Magnitude (Debye)      :      3.98260

Rotational constants in cm-1:     0.000000     0.528468     0.528468
Rotational constants in MHz :     0.000000 15843.074100 15843.074100

                             ****ORCA TERMINATED NORMALLY****
TOTAL RUN TIME: 0 days 0 hours 2 minutes 27 seconds 889 msec
