                         Program Version 4.2.0 -  RELEASE  -
|  1> #
|  2> # 25_MnH tpssh/aug-cc-pvtz
|  3> #
|  4> ! tpssh d3bj aug-cc-pvtz def2/jk grid4 nofinalgrid
|  5>
|  6> *xyz 0 7
|  7>   Mn  0.00000000000000      0.00000000000000      0.13923463274405
|  8>   H   0.00000000000000      0.00000000000000      1.86076536725595
|  9> *
| 10>
| 11> %pal
| 12> nprocs 24
| 13> end
| 14>
| 15>
| 16>                          ****END OF INPUT****

CARTESIAN COORDINATES (ANGSTROEM)
---------------------------------
  Mn     0.000000    0.000000    0.139235
  H      0.000000    0.000000    1.860765

 Total Charge           Charge          ....    0
 Multiplicity           Mult            ....    7
 Number of Electrons    NEL             ....   26
 Basis Dimension        Dim             ....  116

ORBITAL ENERGIES
----------------
                 SPIN UP ORBITALS
  NO   OCC          E(Eh)            E(eV)
   0   1.0000    -235.299697     -6402.8303
   1   1.0000     -27.243933      -741.3451
   2   1.0000     -23.292434      -633.8193
   3   1.0000     -23.292434      -633.8193
   4   1.0000     -23.288823      -633.7211
   5   1.0000      -3.271044       -89.0096
   6   1.0000      -2.139281       -58.2128
   7   1.0000      -2.139281       -58.2128
   8   1.0000      -2.127725       -57.8983
   9   1.0000      -0.356024        -9.6879
  10   1.0000      -0.348452        -9.4819
  11   1.0000      -0.348452        -9.4819
  12   1.0000      -0.340592        -9.2680
  13   1.0000      -0.340592        -9.2680
  14   1.0000      -0.273409        -7.4398
  15   1.0000      -0.160664        -4.3719
  16   0.0000      -0.055967        -1.5229
  17   0.0000      -0.055967        -1.5229
  18   0.0000       0.000184         0.0050
  19   0.0000       0.012191         0.3317
  20   0.0000       0.024461         0.6656

                 SPIN DOWN ORBITALS
  NO   OCC          E(Eh)            E(eV)
   0   1.0000    -235.297658     -6402.7748
   1   1.0000     -27.166765      -739.2452
   2   1.0000     -23.227209      -632.0445
   3   1.0000     -23.227209      -632.0445
   4   1.0000     -23.225198      -631.9898
   5   1.0000      -3.061117       -83.2972
   6   1.0000      -1.920472       -52.2587
   7   1.0000      -1.920472       -52.2587
   8   1.0000      -1.910195       -51.9791
   9   1.0000      -0.270906        -7.3717
  10   0.0000      -0.115473        -3.1422
  11   0.0000      -0.100109        -2.7241
  12   0.0000      -0.100107        -2.7241
  13   0.0000      -0.091920        -2.5013
  14   0.0000      -0.091920        -2.5013

MULLIKEN ATOMIC CHARGES AND SPIN POPULATIONS
--------------------------------------------
   0 Mn:    0.243184    5.912646
   1 H :   -0.243184    0.087354
Sum of atomic charges         :   -0.0000000

LOEWDIN ATOMIC CHARGES AND SPIN POPULATIONS
-------------------------------------------
   0 Mn:    0.570181    5.779858
   1 H :   -0.570181    0.220142

  Mayer bond orders larger than 0.100000
B(  0-Mn,  1-H ) :   0.9536

Dispersion correction           -0.000619133
FINAL SINGLE POINT ENERGY     -1151.585855206338

DIPOLE MOMENT
-------------
                                X             Y             Z
Electronic contribution:      0.00000      -0.00000      -2.12258
Nuclear contribution   :      0.00000       0.00000       1.72930
                        -----------------------------------------
Total Dipole Moment    :      0.00000      -0.00000      -0.39328
                        -----------------------------------------
Magnitude (a.u.)       :      0.39328
Magnitude (Debye)      :      0.99963

Rotational constants in cm-1:     0.000000     5.746491     5.746491
Rotational constants in MHz :     0.000000 172275.461427 172275.461427

                             ****ORCA TERMINATED NORMALLY****
TOTAL RUN TIME: 0 days 0 hours 1 minutes 27 seconds 318 msec
