                         Program Version 4.2.0 -  RELEASE  -
|  1> #
|  2> # 28_MnBr tpssh/aug-cc-pvtz
|  3> #
|  4> ! tpssh d3bj aug-cc-pvtz def2/jk grid4 nofinalgrid
|  5>
|  6> *xyz 0 7
|  7>   Mn  0.00000000000000      0.00000000000000     -0.18897622296313
|  8>   Br  0.00000000000000      0.00000000000000      2.18897622296313
|  9> *
| 10>
| 11> %pal
| 12> nprocs 24
| 13> end
| 14>
| 15>
| 16>                          ****END OF INPUT****

CARTESIAN COORDINATES (ANGSTROEM)
---------------------------------
  Mn     0.000000    0.000000   -0.188976
  Br     0.000000    0.000000    2.188976

 Total Charge           Charge          ....    0
 Multiplicity           Mult            ....    7
 Number of Electrons    NEL             ....   60
 Basis Dimension        Dim             ....  152

ORBITAL ENERGIES
----------------
                 SPIN UP ORBITALS
  NO   OCC          E(Eh)            E(eV)
   0   1.0000    -482.535379    -13130.4552
   1   1.0000    -235.317857     -6403.3244
   2   1.0000     -62.248882     -1693.8782
   3   1.0000     -56.033264     -1524.7426
   4   1.0000     -56.032495     -1524.7217
   5   1.0000     -56.032495     -1524.7217
   6   1.0000     -27.260635      -741.7996
   7   1.0000     -23.309009      -634.2704
   8   1.0000     -23.309009      -634.2704
   9   1.0000     -23.306088      -634.1909
  10   1.0000      -8.591498      -233.7865
  11   1.0000      -6.406352      -174.3257
  12   1.0000      -6.403871      -174.2582
  13   1.0000      -6.403871      -174.2582
  14   1.0000      -3.289014       -89.4986
  15   1.0000      -2.531873       -68.8958
  16   1.0000      -2.531054       -68.8735
  17   1.0000      -2.531054       -68.8735
  18   1.0000      -2.529104       -68.8204
  19   1.0000      -2.529062       -68.8193
  20   1.0000      -2.156269       -58.6750
  21   1.0000      -2.156269       -58.6750
  22   1.0000      -2.148361       -58.4599
  23   1.0000      -0.718833       -19.5604
  24   1.0000      -0.376881       -10.2555
  25   1.0000      -0.365472        -9.9450
  26   1.0000      -0.365472        -9.9450
  27   1.0000      -0.364910        -9.9297
  28   1.0000      -0.364908        -9.9297
  29   1.0000      -0.304163        -8.2767
  30   1.0000      -0.269136        -7.3236
  31   1.0000      -0.269136        -7.3236
  32   1.0000      -0.191622        -5.2143
  33   0.0000      -0.054868        -1.4930
  34   0.0000      -0.054868        -1.4930
  35   0.0000      -0.005544        -0.1509
  36   0.0000      -0.001027        -0.0280
  37   0.0000       0.020929         0.5695

                 SPIN DOWN ORBITALS
  NO   OCC          E(Eh)            E(eV)
   0   1.0000    -482.534938    -13130.4432
   1   1.0000    -235.315735     -6403.2667
   2   1.0000     -62.248701     -1693.8733
   3   1.0000     -56.032750     -1524.7286
   4   1.0000     -56.032174     -1524.7130
   5   1.0000     -56.032174     -1524.7130
   6   1.0000     -27.183156      -739.6913
   7   1.0000     -23.243774      -632.4953
   8   1.0000     -23.243774      -632.4953
   9   1.0000     -23.241880      -632.4437
  10   1.0000      -8.590841      -233.7687
  11   1.0000      -6.405422      -174.3004
  12   1.0000      -6.403201      -174.2400
  13   1.0000      -6.403201      -174.2400
  14   1.0000      -3.078585       -83.7725
  15   1.0000      -2.530935       -68.8703
  16   1.0000      -2.530175       -68.8496
  17   1.0000      -2.530175       -68.8496
  18   1.0000      -2.528389       -68.8009
  19   1.0000      -2.528347       -68.7998
  20   1.0000      -1.936815       -52.7034
  21   1.0000      -1.936815       -52.7034
  22   1.0000      -1.931263       -52.5524
  23   1.0000      -0.711864       -19.3708
  24   1.0000      -0.317179        -8.6309
  25   1.0000      -0.275565        -7.4985
  26   1.0000      -0.275565        -7.4985
  27   0.0000      -0.128361        -3.4929
  28   0.0000      -0.115291        -3.1372
  29   0.0000      -0.115290        -3.1372
  30   0.0000      -0.109078        -2.9682
  31   0.0000      -0.109078        -2.9682

MULLIKEN ATOMIC CHARGES AND SPIN POPULATIONS
--------------------------------------------
   0 Mn:    0.419817    5.865083
   1 Br:   -0.419817    0.134917
Sum of atomic charges         :   -0.0000000

LOEWDIN ATOMIC CHARGES AND SPIN POPULATIONS
-------------------------------------------
   0 Mn:    0.025516    5.721017
   1 Br:   -0.025516    0.278983

  Mayer bond orders larger than 0.100000
B(  0-Mn,  1-Br) :   0.9940

Dispersion correction           -0.001616705
FINAL SINGLE POINT ENERGY     -3725.207968713969

DIPOLE MOMENT
-------------
                                X             Y             Z
Electronic contribution:      0.00000       0.00000       1.45312
Nuclear contribution   :      0.00000       0.00000      -2.48612
                        -----------------------------------------
Total Dipole Moment    :      0.00000       0.00000      -1.03300
                        -----------------------------------------
Magnitude (a.u.)       :      1.03300
Magnitude (Debye)      :      2.62568

Rotational constants in cm-1:     0.000000     0.091574     0.091574
Rotational constants in MHz :     0.000000  2745.330169  2745.330169

                             ****ORCA TERMINATED NORMALLY****
TOTAL RUN TIME: 0 days 0 hours 2 minutes 32 seconds 434 msec
