                         Program Version 4.2.0 -  RELEASE  -
|  1> #
|  2> # 29_MnO tpssh/aug-cc-pvtz
|  3> #
|  4> ! tpssh d3bj aug-cc-pvtz def2/jk grid4 nofinalgrid
|  5>
|  6> *xyz 0 6
|  7>   Mn  0.00000000000000      0.00000000000000      0.18548662877309
|  8>   O   0.00000000000000      0.00000000000000      1.81451337122691
|  9> *
| 10>
| 11> %pal
| 12> nprocs 24
| 13> end
| 14>
| 15>
| 16>                          ****END OF INPUT****

CARTESIAN COORDINATES (ANGSTROEM)
---------------------------------
  Mn     0.000000    0.000000    0.185487
  O      0.000000    0.000000    1.814513

 Total Charge           Charge          ....    0
 Multiplicity           Mult            ....    6
 Number of Electrons    NEL             ....   33
 Basis Dimension        Dim             ....  139

ORBITAL ENERGIES
----------------
                 SPIN UP ORBITALS
  NO   OCC          E(Eh)            E(eV)
   0   1.0000    -235.276362     -6402.1953
   1   1.0000     -27.214283      -740.5383
   2   1.0000     -23.264544      -633.0604
   3   1.0000     -23.264544      -633.0604
   4   1.0000     -23.258423      -632.8939
   5   1.0000     -19.019596      -517.5495
   6   1.0000      -3.229979       -87.8922
   7   1.0000      -2.098885       -57.1136
   8   1.0000      -2.098885       -57.1136
   9   1.0000      -2.089611       -56.8612
  10   1.0000      -0.844477       -22.9794
  11   1.0000      -0.349476        -9.5097
  12   1.0000      -0.349476        -9.5097
  13   1.0000      -0.341115        -9.2822
  14   1.0000      -0.312635        -8.5072
  15   1.0000      -0.312635        -8.5072
  16   1.0000      -0.224686        -6.1140
  17   1.0000      -0.216160        -5.8820
  18   1.0000      -0.216160        -5.8820
  19   0.0000      -0.110375        -3.0035
  20   0.0000      -0.028784        -0.7832
  21   0.0000      -0.028784        -0.7832
  22   0.0000       0.002760         0.0751
  23   0.0000       0.011211         0.3051

                 SPIN DOWN ORBITALS
  NO   OCC          E(Eh)            E(eV)
   0   1.0000    -235.274566     -6402.1464
   1   1.0000     -27.148292      -738.7426
   2   1.0000     -23.210279      -631.5838
   3   1.0000     -23.205815      -631.4623
   4   1.0000     -23.205815      -631.4623
   5   1.0000     -19.016085      -517.4540
   6   1.0000      -3.053077       -83.0785
   7   1.0000      -1.926290       -52.4170
   8   1.0000      -1.905714       -51.8571
   9   1.0000      -1.905714       -51.8571
  10   1.0000      -0.834503       -22.7080
  11   1.0000      -0.308632        -8.3983
  12   1.0000      -0.267790        -7.2869
  13   1.0000      -0.267790        -7.2869
  14   0.0000      -0.108972        -2.9653
  15   0.0000      -0.082093        -2.2339
  16   0.0000      -0.082084        -2.2336
  17   0.0000      -0.061726        -1.6796
  18   0.0000      -0.061726        -1.6796

MULLIKEN ATOMIC CHARGES AND SPIN POPULATIONS
--------------------------------------------
   0 Mn:    0.616911    4.828136
   1 O :   -0.616911    0.171864
Sum of atomic charges         :   -0.0000000

LOEWDIN ATOMIC CHARGES AND SPIN POPULATIONS
-------------------------------------------
   0 Mn:    0.634361    4.698201
   1 O :   -0.634361    0.301799

  Mayer bond orders larger than 0.100000
B(  0-Mn,  1-O ) :   2.0066

Dispersion correction           -0.000687650
FINAL SINGLE POINT ENERGY     -1226.272186578795

DIPOLE MOMENT
-------------
                                X             Y             Z
Electronic contribution:     -0.00000      -0.00000      -3.58167
Nuclear contribution   :      0.00000       0.00000       1.71606
                        -----------------------------------------
Total Dipole Moment    :     -0.00000      -0.00000      -1.86560
                        -----------------------------------------
Magnitude (a.u.)       :      1.86560
Magnitude (Debye)      :      4.74198

Rotational constants in cm-1:     0.000000     0.512677     0.512677
Rotational constants in MHz :     0.000000 15369.677147 15369.677147

                             ****ORCA TERMINATED NORMALLY****
TOTAL RUN TIME: 0 days 0 hours 2 minutes 21 seconds 350 msec
