                         Program Version 4.2.0 -  RELEASE  -
|  1> #
|  2> # 30_MnS tpssh/aug-cc-pvtz
|  3> #
|  4> ! tpssh d3bj aug-cc-pvtz def2/jk grid4 nofinalgrid
|  5>
|  6> *xyz 0 6
|  7>   Mn  0.00000000000000      0.00000000000000     -0.02260858554296
|  8>   S   0.00000000000000      0.00000000000000      2.02260858554296
|  9> *
| 10>
| 11> %pal
| 12> nprocs 24
| 13> end
| 14>
| 15>
| 16>                          ****END OF INPUT****

CARTESIAN COORDINATES (ANGSTROEM)
---------------------------------
  Mn     0.000000    0.000000   -0.022609
  S      0.000000    0.000000    2.022609

 Total Charge           Charge          ....    0
 Multiplicity           Mult            ....    6
 Number of Electrons    NEL             ....   41
 Basis Dimension        Dim             ....  143

ORBITAL ENERGIES
----------------
                 SPIN UP ORBITALS
  NO   OCC          E(Eh)            E(eV)
   0   1.0000    -235.278716     -6402.2593
   1   1.0000     -88.690481     -2413.3907
   2   1.0000     -27.213616      -740.5201
   3   1.0000     -23.264149      -633.0497
   4   1.0000     -23.264149      -633.0497
   5   1.0000     -23.257882      -632.8792
   6   1.0000      -7.815962      -212.6831
   7   1.0000      -5.763648      -156.8368
   8   1.0000      -5.762962      -156.8182
   9   1.0000      -5.762962      -156.8182
  10   1.0000      -3.235396       -88.0396
  11   1.0000      -2.104610       -57.2694
  12   1.0000      -2.104610       -57.2694
  13   1.0000      -2.094849       -57.0037
  14   1.0000      -0.608244       -16.5512
  15   1.0000      -0.327486        -8.9114
  16   1.0000      -0.327486        -8.9114
  17   1.0000      -0.327095        -8.9007
  18   1.0000      -0.319769        -8.7014
  19   1.0000      -0.319769        -8.7014
  20   1.0000      -0.243086        -6.6147
  21   1.0000      -0.204108        -5.5541
  22   1.0000      -0.204108        -5.5541
  23   0.0000      -0.127079        -3.4580
  24   0.0000      -0.034606        -0.9417
  25   0.0000      -0.034606        -0.9417
  26   0.0000       0.000408         0.0111
  27   0.0000       0.008106         0.2206

                 SPIN DOWN ORBITALS
  NO   OCC          E(Eh)            E(eV)
   0   1.0000    -235.277288     -6402.2205
   1   1.0000     -88.690213     -2413.3834
   2   1.0000     -27.145078      -738.6551
   3   1.0000     -23.205351      -631.4497
   4   1.0000     -23.204451      -631.4252
   5   1.0000     -23.204451      -631.4252
   6   1.0000      -7.815698      -212.6760
   7   1.0000      -5.766919      -156.9258
   8   1.0000      -5.760783      -156.7589
   9   1.0000      -5.760783      -156.7589
  10   1.0000      -3.049972       -82.9940
  11   1.0000      -1.913614       -52.0721
  12   1.0000      -1.906112       -51.8680
  13   1.0000      -1.906112       -51.8680
  14   1.0000      -0.604323       -16.4445
  15   1.0000      -0.269600        -7.3362
  16   1.0000      -0.225402        -6.1335
  17   1.0000      -0.225402        -6.1335
  18   0.0000      -0.115487        -3.1426
  19   0.0000      -0.086944        -2.3659
  20   0.0000      -0.086944        -2.3659
  21   0.0000      -0.084568        -2.3012
  22   0.0000      -0.084568        -2.3012

MULLIKEN ATOMIC CHARGES AND SPIN POPULATIONS
--------------------------------------------
   0 Mn:    0.357447    4.849849
   1 S :   -0.357447    0.150151
Sum of atomic charges         :   -0.0000000

LOEWDIN ATOMIC CHARGES AND SPIN POPULATIONS
-------------------------------------------
   0 Mn:    0.157799    4.747652
   1 S :   -0.157799    0.252348

  Mayer bond orders larger than 0.100000
B(  0-Mn,  1-S ) :   2.1836

Dispersion correction           -0.001617010
FINAL SINGLE POINT ENERGY     -1549.281019583776

DIPOLE MOMENT
-------------
                                X             Y             Z
Electronic contribution:      0.00000       0.00000      -5.72225
Nuclear contribution   :      0.00000       0.00000       3.44465
                        -----------------------------------------
Total Dipole Moment    :      0.00000       0.00000      -2.27760
                        -----------------------------------------
Magnitude (a.u.)       :      2.27760
Magnitude (Debye)      :      5.78920

Rotational constants in cm-1:     0.000000     0.199061     0.199061
Rotational constants in MHz :     0.000000  5967.684062  5967.684062

                             ****ORCA TERMINATED NORMALLY****
TOTAL RUN TIME: 0 days 0 hours 2 minutes 16 seconds 66 msec
