                         Program Version 4.2.0 -  RELEASE  -
|  1> #
|  2> # 32_FeF tpssh/aug-cc-pvtz
|  3> #
|  4> ! tpssh d3bj aug-cc-pvtz def2/jk grid4 nofinalgrid
|  5>
|  6> *xyz 0 6
|  7>   Fe  0.00000000000000      0.00000000000000      0.10964273788681
|  8>   F   0.00000000000000      0.00000000000000      1.89035726211319
|  9> *
| 10>
| 11> %pal
| 12> nprocs 24
| 13> end
| 14>
| 15>
| 16>                          ****END OF INPUT****

CARTESIAN COORDINATES (ANGSTROEM)
---------------------------------
  Fe     0.000000    0.000000    0.109643
  F      0.000000    0.000000    1.890357

 Total Charge           Charge          ....    0
 Multiplicity           Mult            ....    6
 Number of Electrons    NEL             ....   35
 Basis Dimension        Dim             ....  139

ORBITAL ENERGIES
----------------
                 SPIN UP ORBITALS
  NO   OCC          E(Eh)            E(eV)
   0   1.0000    -255.904642     -6963.5193
   1   1.0000     -29.958072      -815.2006
   2   1.0000     -25.806193      -702.2222
   3   1.0000     -25.779874      -701.5060
   4   1.0000     -25.779874      -701.5060
   5   1.0000     -24.553717      -668.1406
   6   1.0000      -3.548976       -96.5726
   7   1.0000      -2.358295       -64.1725
   8   1.0000      -2.305482       -62.7353
   9   1.0000      -2.305482       -62.7353
  10   1.0000      -1.096398       -29.8345
  11   1.0000      -0.441850       -12.0233
  12   1.0000      -0.406642       -11.0653
  13   1.0000      -0.406642       -11.0653
  14   1.0000      -0.360861        -9.8195
  15   1.0000      -0.325854        -8.8669
  16   1.0000      -0.325854        -8.8669
  17   1.0000      -0.322212        -8.7678
  18   1.0000      -0.319372        -8.6906
  19   1.0000      -0.194586        -5.2950
  20   0.0000      -0.040555        -1.1036
  21   0.0000      -0.040555        -1.1036
  22   0.0000      -0.000602        -0.0164
  23   0.0000       0.002860         0.0778
  24   0.0000       0.028419         0.7733

                 SPIN DOWN ORBITALS
  NO   OCC          E(Eh)            E(eV)
   0   1.0000    -255.902392     -6963.4581
   1   1.0000     -29.889494      -813.3345
   2   1.0000     -25.738934      -700.3920
   3   1.0000     -25.727249      -700.0740
   4   1.0000     -25.727249      -700.0740
   5   1.0000     -24.546330      -667.9396
   6   1.0000      -3.373364       -91.7939
   7   1.0000      -2.141292       -58.2675
   8   1.0000      -2.141059       -58.2612
   9   1.0000      -2.141059       -58.2612
  10   1.0000      -1.079684       -29.3797
  11   1.0000      -0.391344       -10.6490
  12   1.0000      -0.354925        -9.6580
  13   1.0000      -0.354925        -9.6580
  14   1.0000      -0.246055        -6.6955
  15   0.0000      -0.141956        -3.8628
  16   0.0000      -0.119138        -3.2419
  17   0.0000      -0.119138        -3.2419
  18   0.0000      -0.096557        -2.6275
  19   0.0000      -0.088380        -2.4049

MULLIKEN ATOMIC CHARGES AND SPIN POPULATIONS
--------------------------------------------
   0 Fe:    0.568504    4.825487
   1 F :   -0.568504    0.174513
Sum of atomic charges         :   -0.0000000

LOEWDIN ATOMIC CHARGES AND SPIN POPULATIONS
-------------------------------------------
   0 Fe:    0.412663    4.702476
   1 F :   -0.412663    0.297524

  Mayer bond orders larger than 0.100000
B(  0-Fe,  1-F ) :   0.7627

Dispersion correction           -0.000478384
FINAL SINGLE POINT ENERGY     -1363.645504897154

DIPOLE MOMENT
-------------
                                X             Y             Z
Electronic contribution:     -0.00000       0.00000      -1.12796
Nuclear contribution   :      0.00000       0.00000       0.39123
                        -----------------------------------------
Total Dipole Moment    :     -0.00000       0.00000      -0.73673
                        -----------------------------------------
Magnitude (a.u.)       :      0.73673
Magnitude (Debye)      :      1.87262

Rotational constants in cm-1:     0.000000     0.375023     0.375023
Rotational constants in MHz :     0.000000 11242.894653 11242.894653

                             ****ORCA TERMINATED NORMALLY****
TOTAL RUN TIME: 0 days 0 hours 1 minutes 21 seconds 244 msec
