                         Program Version 4.2.0 -  RELEASE  -
|  1> #
|  2> # 33_FeCl tpssh/aug-cc-pvtz
|  3> #
|  4> ! tpssh d3bj aug-cc-pvtz def2/jk grid4 nofinalgrid
|  5>
|  6> *xyz 0 6
|  7>   Fe  0.00000000000000      0.00000000000000     -0.08894892709089
|  8>   Cl  0.00000000000000      0.00000000000000      2.08894892709089
|  9> *
| 10>
| 11> %pal
| 12> nprocs 24
| 13> end
| 14>
| 15>
| 16>                          ****END OF INPUT****

CARTESIAN COORDINATES (ANGSTROEM)
---------------------------------
  Fe     0.000000    0.000000   -0.088949
  Cl     0.000000    0.000000    2.088949

 Total Charge           Charge          ....    0
 Multiplicity           Mult            ....    6
 Number of Electrons    NEL             ....   43
 Basis Dimension        Dim             ....  143

ORBITAL ENERGIES
----------------
                 SPIN UP ORBITALS
  NO   OCC          E(Eh)            E(eV)
   0   1.0000    -255.917686     -6963.8743
   1   1.0000    -101.382882     -2758.7685
   2   1.0000     -29.970863      -815.5486
   3   1.0000     -25.819679      -702.5892
   4   1.0000     -25.792362      -701.8459
   5   1.0000     -25.792362      -701.8459
   6   1.0000      -9.361861      -254.7492
   7   1.0000      -7.106415      -193.3754
   8   1.0000      -7.104109      -193.3126
   9   1.0000      -7.104109      -193.3126
  10   1.0000      -3.560588       -96.8885
  11   1.0000      -2.370579       -64.5067
  12   1.0000      -2.316310       -63.0300
  13   1.0000      -2.316310       -63.0300
  14   1.0000      -0.774635       -21.0789
  15   1.0000      -0.414175       -11.2703
  16   1.0000      -0.394704       -10.7404
  17   1.0000      -0.394704       -10.7404
  18   1.0000      -0.370850       -10.0913
  19   1.0000      -0.329269        -8.9599
  20   1.0000      -0.326890        -8.8951
  21   1.0000      -0.297720        -8.1014
  22   1.0000      -0.297720        -8.1014
  23   1.0000      -0.193992        -5.2788
  24   0.0000      -0.045556        -1.2396
  25   0.0000      -0.045556        -1.2396
  26   0.0000      -0.002159        -0.0588
  27   0.0000       0.001279         0.0348
  28   0.0000       0.024311         0.6615

                 SPIN DOWN ORBITALS
  NO   OCC          E(Eh)            E(eV)
   0   1.0000    -255.915507     -6963.8150
   1   1.0000    -101.381205     -2758.7229
   2   1.0000     -29.902743      -813.6950
   3   1.0000     -25.752911      -700.7723
   4   1.0000     -25.740100      -700.4237
   5   1.0000     -25.740100      -700.4237
   6   1.0000      -9.360384      -254.7090
   7   1.0000      -7.103780      -193.3037
   8   1.0000      -7.102111      -193.2583
   9   1.0000      -7.102111      -193.2583
  10   1.0000      -3.385709       -92.1298
  11   1.0000      -2.154341       -58.6226
  12   1.0000      -2.152426       -58.5705
  13   1.0000      -2.152426       -58.5705
  14   1.0000      -0.763672       -20.7806
  15   1.0000      -0.351063        -9.5529
  16   1.0000      -0.305370        -8.3095
  17   1.0000      -0.305370        -8.3095
  18   1.0000      -0.256313        -6.9746
  19   0.0000      -0.156454        -4.2573
  20   0.0000      -0.139289        -3.7903
  21   0.0000      -0.139289        -3.7903
  22   0.0000      -0.106719        -2.9040
  23   0.0000      -0.104525        -2.8443

MULLIKEN ATOMIC CHARGES AND SPIN POPULATIONS
--------------------------------------------
   0 Fe:    0.418007    4.799221
   1 Cl:   -0.418007    0.200779
Sum of atomic charges         :   -0.0000000

LOEWDIN ATOMIC CHARGES AND SPIN POPULATIONS
-------------------------------------------
   0 Fe:    0.063777    4.676416
   1 Cl:   -0.063777    0.323584

  Mayer bond orders larger than 0.100000
B(  0-Fe,  1-Cl) :   1.0047

Dispersion correction           -0.001346557
FINAL SINGLE POINT ENERGY     -1724.015114547480

DIPOLE MOMENT
-------------
                                X             Y             Z
Electronic contribution:      0.00000       0.00000      -2.01548
Nuclear contribution   :      0.00000       0.00000       1.24736
                        -----------------------------------------
Total Dipole Moment    :      0.00000       0.00000      -0.76812
                        -----------------------------------------
Magnitude (a.u.)       :      0.76812
Magnitude (Debye)      :      1.95240

Rotational constants in cm-1:     0.000000     0.163882     0.163882
Rotational constants in MHz :     0.000000  4913.053230  4913.053230

                             ****ORCA TERMINATED NORMALLY****
TOTAL RUN TIME: 0 days 0 hours 1 minutes 53 seconds 58 msec
