                         Program Version 4.2.0 -  RELEASE  -
|  1> #
|  2> # 34_FeBr tpssh/aug-cc-pvtz
|  3> #
|  4> ! tpssh d3bj aug-cc-pvtz def2/jk grid4 nofinalgrid
|  5>
|  6> *xyz 0 6
|  7>   Fe  0.00000000000000      0.00000000000000     -0.16252996889250
|  8>   Br  0.00000000000000      0.00000000000000      2.16252996889250
|  9> *
| 10>
| 11> %pal
| 12> nprocs 24
| 13> end
| 14>
| 15>
| 16>                          ****END OF INPUT****

CARTESIAN COORDINATES (ANGSTROEM)
---------------------------------
  Fe     0.000000    0.000000   -0.162530
  Br     0.000000    0.000000    2.162530

 Total Charge           Charge          ....    0
 Multiplicity           Mult            ....    6
 Number of Electrons    NEL             ....   61
 Basis Dimension        Dim             ....  152

ORBITAL ENERGIES
----------------
                 SPIN UP ORBITALS
  NO   OCC          E(Eh)            E(eV)
   0   1.0000    -482.548496    -13130.8121
   1   1.0000    -255.918533     -6963.8973
   2   1.0000     -62.261877     -1694.2318
   3   1.0000     -56.046358     -1525.0989
   4   1.0000     -56.045523     -1525.0762
   5   1.0000     -56.045523     -1525.0762
   6   1.0000     -29.971362      -815.5622
   7   1.0000     -25.820315      -702.6065
   8   1.0000     -25.792847      -701.8591
   9   1.0000     -25.792847      -701.8591
  10   1.0000      -8.604547      -234.1416
  11   1.0000      -6.419548      -174.6848
  12   1.0000      -6.416880      -174.6122
  13   1.0000      -6.416880      -174.6122
  14   1.0000      -3.560912       -96.8973
  15   1.0000      -2.545088       -69.2554
  16   1.0000      -2.544180       -69.2307
  17   1.0000      -2.544180       -69.2307
  18   1.0000      -2.542088       -69.1737
  19   1.0000      -2.542045       -69.1726
  20   1.0000      -2.370996       -64.5181
  21   1.0000      -2.316538       -63.0362
  22   1.0000      -2.316538       -63.0362
  23   1.0000      -0.732978       -19.9454
  24   1.0000      -0.406240       -11.0544
  25   1.0000      -0.391972       -10.6661
  26   1.0000      -0.391972       -10.6661
  27   1.0000      -0.371086       -10.0978
  28   1.0000      -0.329519        -8.9667
  29   1.0000      -0.320257        -8.7146
  30   1.0000      -0.281389        -7.6570
  31   1.0000      -0.281389        -7.6570
  32   1.0000      -0.192756        -5.2451
  33   0.0000      -0.047285        -1.2867
  34   0.0000      -0.047285        -1.2867
  35   0.0000      -0.004310        -0.1173
  36   0.0000       0.000609         0.0166
  37   0.0000       0.022936         0.6241

                 SPIN DOWN ORBITALS
  NO   OCC          E(Eh)            E(eV)
   0   1.0000    -482.547861    -13130.7949
   1   1.0000    -255.916377     -6963.8387
   2   1.0000     -62.261627     -1694.2250
   3   1.0000     -56.045663     -1525.0800
   4   1.0000     -56.045042     -1525.0631
   5   1.0000     -56.045042     -1525.0631
   6   1.0000     -29.903450      -813.7142
   7   1.0000     -25.753781      -700.7960
   8   1.0000     -25.740742      -700.4412
   9   1.0000     -25.740742      -700.4412
  10   1.0000      -8.603616      -234.1163
  11   1.0000      -6.418265      -174.6499
  12   1.0000      -6.415900      -174.5855
  13   1.0000      -6.415900      -174.5855
  14   1.0000      -3.386457       -92.1502
  15   1.0000      -2.543784       -69.2199
  16   1.0000      -2.542948       -69.1971
  17   1.0000      -2.542948       -69.1971
  18   1.0000      -2.541044       -69.1453
  19   1.0000      -2.540998       -69.1441
  20   1.0000      -2.155328       -58.6495
  21   1.0000      -2.152996       -58.5860
  22   1.0000      -2.152996       -58.5860
  23   1.0000      -0.723332       -19.6829
  24   1.0000      -0.333033        -9.0623
  25   1.0000      -0.285917        -7.7802
  26   1.0000      -0.285917        -7.7802
  27   1.0000      -0.256740        -6.9862
  28   0.0000      -0.158077        -4.3015
  29   0.0000      -0.142104        -3.8669
  30   0.0000      -0.142104        -3.8669
  31   0.0000      -0.107267        -2.9189
  32   0.0000      -0.107147        -2.9156

MULLIKEN ATOMIC CHARGES AND SPIN POPULATIONS
--------------------------------------------
   0 Fe:    0.376120    4.776417
   1 Br:   -0.376120    0.223583
Sum of atomic charges         :   -0.0000000

LOEWDIN ATOMIC CHARGES AND SPIN POPULATIONS
-------------------------------------------
   0 Fe:   -0.020402    4.660192
   1 Br:    0.020402    0.339808

  Mayer bond orders larger than 0.100000
B(  0-Fe,  1-Br) :   1.0690

Dispersion correction           -0.001523062
FINAL SINGLE POINT ENERGY     -3837.897823539351

DIPOLE MOMENT
-------------
                                X             Y             Z
Electronic contribution:     -0.00000       0.00000       3.21436
Nuclear contribution   :      0.00000       0.00000      -3.96973
                        -----------------------------------------
Total Dipole Moment    :     -0.00000       0.00000      -0.75537
                        -----------------------------------------
Magnitude (a.u.)       :      0.75537
Magnitude (Debye)      :      1.91999

Rotational constants in cm-1:     0.000000     0.094863     0.094863
Rotational constants in MHz :     0.000000  2843.931812  2843.931812

                             ****ORCA TERMINATED NORMALLY****
TOTAL RUN TIME: 0 days 0 hours 2 minutes 34 seconds 524 msec
