                         Program Version 4.2.0 -  RELEASE  -
|  1> #
|  2> # 35_FeO tpssh/aug-cc-pvtz
|  3> #
|  4> ! tpssh d3bj aug-cc-pvtz def2/jk grid4 nofinalgrid
|  5>
|  6> *xyz 0 5
|  7>   Fe  0.00000000000000      0.00000000000000      0.19611340956582
|  8>   O   0.00000000000000      0.00000000000000      1.80388659043418
|  9> *
| 10>
| 11> %pal
| 12> nprocs 24
| 13> end
| 14>
| 15>
| 16>                          ****END OF INPUT****

CARTESIAN COORDINATES (ANGSTROEM)
---------------------------------
  Fe     0.000000    0.000000    0.196113
  O      0.000000    0.000000    1.803887

 Total Charge           Charge          ....    0
 Multiplicity           Mult            ....    5
 Number of Electrons    NEL             ....   34
 Basis Dimension        Dim             ....  139

ORBITAL ENERGIES
----------------
                 SPIN UP ORBITALS
  NO   OCC          E(Eh)            E(eV)
   0   1.0000    -255.854512     -6962.1552
   1   1.0000     -29.897952      -813.5646
   2   1.0000     -25.743418      -700.5140
   3   1.0000     -25.723226      -699.9646
   4   1.0000     -25.723226      -699.9646
   5   1.0000     -19.028783      -517.7995
   6   1.0000      -3.477275       -94.6215
   7   1.0000      -2.284350       -62.1603
   8   1.0000      -2.237213       -60.8777
   9   1.0000      -2.237213       -60.8777
  10   1.0000      -0.857765       -23.3410
  11   1.0000      -0.355075        -9.6621
  12   1.0000      -0.354710        -9.6522
  13   1.0000      -0.354710        -9.6522
  14   1.0000      -0.300642        -8.1809
  15   1.0000      -0.260060        -7.0766
  16   1.0000      -0.227824        -6.1994
  17   1.0000      -0.223859        -6.0915
  18   1.0000      -0.223859        -6.0915
  19   0.0000      -0.116358        -3.1663
  20   0.0000      -0.021571        -0.5870
  21   0.0000      -0.021571        -0.5870
  22   0.0000       0.004461         0.1214
  23   0.0000       0.013340         0.3630

                 SPIN DOWN ORBITALS
  NO   OCC          E(Eh)            E(eV)
   0   1.0000    -255.852814     -6962.1090
   1   1.0000     -29.843544      -812.0841
   2   1.0000     -25.695331      -699.2055
   3   1.0000     -25.678883      -698.7579
   4   1.0000     -25.678883      -698.7579
   5   1.0000     -19.019271      -517.5407
   6   1.0000      -3.339058       -90.8604
   7   1.0000      -2.125034       -57.8251
   8   1.0000      -2.102387       -57.2088
   9   1.0000      -2.102387       -57.2088
  10   1.0000      -0.834656       -22.7121
  11   1.0000      -0.313216        -8.5230
  12   1.0000      -0.268835        -7.3154
  13   1.0000      -0.268835        -7.3154
  14   1.0000      -0.205046        -5.5796
  15   0.0000      -0.120765        -3.2862
  16   0.0000      -0.077456        -2.1077
  17   0.0000      -0.077456        -2.1077
  18   0.0000      -0.063756        -1.7349
  19   0.0000      -0.062117        -1.6903

MULLIKEN ATOMIC CHARGES AND SPIN POPULATIONS
--------------------------------------------
   0 Fe:    0.599459    3.610892
   1 O :   -0.599459    0.389108
Sum of atomic charges         :   -0.0000000

LOEWDIN ATOMIC CHARGES AND SPIN POPULATIONS
-------------------------------------------
   0 Fe:    0.604252    3.536390
   1 O :   -0.604252    0.463610

  Mayer bond orders larger than 0.100000
B(  0-Fe,  1-O ) :   2.0378

Dispersion correction           -0.000650713
FINAL SINGLE POINT ENERGY     -1338.974311732625

DIPOLE MOMENT
-------------
                                X             Y             Z
Electronic contribution:      0.00000       0.00000      -3.21432
Nuclear contribution   :      0.00000       0.00000       1.30353
                        -----------------------------------------
Total Dipole Moment    :      0.00000       0.00000      -1.91080
                        -----------------------------------------
Magnitude (a.u.)       :      1.91080
Magnitude (Debye)      :      4.85686

Rotational constants in cm-1:     0.000000     0.524387     0.524387
Rotational constants in MHz :     0.000000 15720.731712 15720.731712

                             ****ORCA TERMINATED NORMALLY****
TOTAL RUN TIME: 0 days 0 hours 2 minutes 38 seconds 477 msec
