                         Program Version 4.2.0 -  RELEASE  -
|  1> #
|  2> # 36_FeS tpssh/aug-cc-pvtz
|  3> #
|  4> ! tpssh d3bj aug-cc-pvtz def2/jk grid4 nofinalgrid
|  5>
|  6> *xyz 0 5
|  7>   Fe  0.00000000000000      0.00000000000000     -0.00599090985654
|  8>   S   0.00000000000000      0.00000000000000      2.00599090985654
|  9> *
| 10>
| 11> %pal
| 12> nprocs 24
| 13> end
| 14>
| 15>
| 16>                          ****END OF INPUT****

CARTESIAN COORDINATES (ANGSTROEM)
---------------------------------
  Fe     0.000000    0.000000   -0.005991
  S      0.000000    0.000000    2.005991

 Total Charge           Charge          ....    0
 Multiplicity           Mult            ....    5
 Number of Electrons    NEL             ....   42
 Basis Dimension        Dim             ....  143

ORBITAL ENERGIES
----------------
                 SPIN UP ORBITALS
  NO   OCC          E(Eh)            E(eV)
   0   1.0000    -255.855546     -6962.1834
   1   1.0000     -88.697440     -2413.5801
   2   1.0000     -29.896296      -813.5196
   3   1.0000     -25.742072      -700.4774
   4   1.0000     -25.721729      -699.9238
   5   1.0000     -25.721729      -699.9238
   6   1.0000      -7.822655      -212.8653
   7   1.0000      -5.770262      -157.0168
   8   1.0000      -5.770202      -157.0152
   9   1.0000      -5.770202      -157.0152
  10   1.0000      -3.480440       -94.7076
  11   1.0000      -2.287003       -62.2325
  12   1.0000      -2.240910       -60.9783
  13   1.0000      -2.240910       -60.9783
  14   1.0000      -0.618497       -16.8301
  15   1.0000      -0.337172        -9.1749
  16   1.0000      -0.329805        -8.9745
  17   1.0000      -0.329805        -8.9745
  18   1.0000      -0.305465        -8.3121
  19   1.0000      -0.265349        -7.2205
  20   1.0000      -0.244899        -6.6640
  21   1.0000      -0.210484        -5.7276
  22   1.0000      -0.210484        -5.7276
  23   0.0000      -0.125284        -3.4091
  24   0.0000      -0.025402        -0.6912
  25   0.0000      -0.025402        -0.6912
  26   0.0000       0.003253         0.0885
  27   0.0000       0.009560         0.2601

                 SPIN DOWN ORBITALS
  NO   OCC          E(Eh)            E(eV)
   0   1.0000    -255.854227     -6962.1475
   1   1.0000     -88.695825     -2413.5361
   2   1.0000     -29.839750      -811.9809
   3   1.0000     -25.690170      -699.0651
   4   1.0000     -25.676658      -698.6974
   5   1.0000     -25.676658      -698.6974
   6   1.0000      -7.821121      -212.8235
   7   1.0000      -5.771384      -157.0473
   8   1.0000      -5.766229      -156.9071
   9   1.0000      -5.766229      -156.9071
  10   1.0000      -3.335626       -90.7670
  11   1.0000      -2.114143       -57.5287
  12   1.0000      -2.101926       -57.1963
  13   1.0000      -2.101926       -57.1963
  14   1.0000      -0.605490       -16.4762
  15   1.0000      -0.275449        -7.4953
  16   1.0000      -0.229167        -6.2360
  17   1.0000      -0.229167        -6.2360
  18   1.0000      -0.207204        -5.6383
  19   0.0000      -0.126666        -3.4468
  20   0.0000      -0.100193        -2.7264
  21   0.0000      -0.100193        -2.7264
  22   0.0000      -0.083677        -2.2770
  23   0.0000      -0.065504        -1.7825

MULLIKEN ATOMIC CHARGES AND SPIN POPULATIONS
--------------------------------------------
   0 Fe:    0.332297    3.577745
   1 S :   -0.332297    0.422255
Sum of atomic charges         :   -0.0000000

LOEWDIN ATOMIC CHARGES AND SPIN POPULATIONS
-------------------------------------------
   0 Fe:    0.110937    3.556299
   1 S :   -0.110937    0.443701

  Mayer bond orders larger than 0.100000
B(  0-Fe,  1-S ) :   2.2387

Dispersion correction           -0.001526901
FINAL SINGLE POINT ENERGY     -1661.982856463937

DIPOLE MOMENT
-------------
                                X             Y             Z
Electronic contribution:     -0.00000       0.00000      -4.76273
Nuclear contribution   :      0.00000       0.00000       2.59672
                        -----------------------------------------
Total Dipole Moment    :     -0.00000       0.00000      -2.16601
                        -----------------------------------------
Magnitude (a.u.)       :      2.16601
Magnitude (Debye)      :      5.50555

Rotational constants in cm-1:     0.000000     0.204456     0.204456
Rotational constants in MHz :     0.000000  6129.444038  6129.444038

                             ****ORCA TERMINATED NORMALLY****
TOTAL RUN TIME: 0 days 0 hours 2 minutes 21 seconds 909 msec
