                         Program Version 4.2.0 -  RELEASE  -
|  1> #
|  2> # 40_CoBr tpssh/aug-cc-pvtz
|  3> #
|  4> ! tpssh d3bj aug-cc-pvtz def2/jk grid4 nofinalgrid
|  5>
|  6> *xyz 0 3
|  7>   Co  0.00000000000000      0.00000000000000     -0.10327875603907
|  8>   Br  0.00000000000000      0.00000000000000      2.10327875603907
|  9> *
| 10>
| 11> %pal
| 12> nprocs 24
| 13> end
| 14>
| 15>
| 16>                          ****END OF INPUT****

CARTESIAN COORDINATES (ANGSTROEM)
---------------------------------
  Co     0.000000    0.000000   -0.103279
  Br     0.000000    0.000000    2.103279

 Total Charge           Charge          ....    0
 Multiplicity           Mult            ....    3
 Number of Electrons    NEL             ....   62
 Basis Dimension        Dim             ....  152

ORBITAL ENERGIES
----------------
                 SPIN UP ORBITALS
  NO   OCC          E(Eh)            E(eV)
   0   1.0000    -482.529656    -13130.2995
   1   1.0000    -277.255814     -7544.5143
   2   1.0000     -62.242954     -1693.7169
   3   1.0000     -56.027560     -1524.5874
   4   1.0000     -56.026413     -1524.5562
   5   1.0000     -56.026413     -1524.5562
   6   1.0000     -32.646441      -888.3548
   7   1.0000     -28.281912      -769.5899
   8   1.0000     -28.251737      -768.7689
   9   1.0000     -28.251737      -768.7689
  10   1.0000      -8.585349      -233.6192
  11   1.0000      -6.401259      -174.1871
  12   1.0000      -6.397139      -174.0750
  13   1.0000      -6.397139      -174.0750
  14   1.0000      -3.688145      -100.3595
  15   1.0000      -2.526637       -68.7533
  16   1.0000      -2.525235       -68.7151
  17   1.0000      -2.525235       -68.7151
  18   1.0000      -2.522002       -68.6272
  19   1.0000      -2.521962       -68.6261
  20   1.0000      -2.418423       -65.8086
  21   1.0000      -2.349294       -63.9275
  22   1.0000      -2.349294       -63.9275
  23   1.0000      -0.708849       -19.2888
  24   1.0000      -0.327657        -8.9160
  25   1.0000      -0.305649        -8.3171
  26   1.0000      -0.305649        -8.3171
  27   1.0000      -0.243555        -6.6275
  28   1.0000      -0.243555        -6.6275
  29   1.0000      -0.229138        -6.2352
  30   1.0000      -0.217884        -5.9289
  31   1.0000      -0.217882        -5.9289
  32   0.0000      -0.120519        -3.2795
  33   0.0000      -0.013312        -0.3623
  34   0.0000      -0.013312        -0.3622
  35   0.0000       0.009428         0.2565
  36   0.0000       0.011156         0.3036

                 SPIN DOWN ORBITALS
  NO   OCC          E(Eh)            E(eV)
   0   1.0000    -482.529484    -13130.2948
   1   1.0000    -277.255314     -7544.5006
   2   1.0000     -62.242883     -1693.7150
   3   1.0000     -56.027577     -1524.5879
   4   1.0000     -56.026167     -1524.5495
   5   1.0000     -56.026167     -1524.5495
   6   1.0000     -32.610850      -887.3863
   7   1.0000     -28.241935      -768.5021
   8   1.0000     -28.226707      -768.0878
   9   1.0000     -28.226707      -768.0878
  10   1.0000      -8.585096      -233.6123
  11   1.0000      -6.401319      -174.1887
  12   1.0000      -6.396656      -174.0619
  13   1.0000      -6.396656      -174.0619
  14   1.0000      -3.596420       -97.8636
  15   1.0000      -2.526525       -68.7503
  16   1.0000      -2.525026       -68.7094
  17   1.0000      -2.525026       -68.7094
  18   1.0000      -2.521423       -68.6114
  19   1.0000      -2.521383       -68.6103
  20   1.0000      -2.291313       -62.3498
  21   1.0000      -2.270237       -61.7763
  22   1.0000      -2.270237       -61.7763
  23   1.0000      -0.706207       -19.2169
  24   1.0000      -0.319871        -8.7041
  25   1.0000      -0.265747        -7.2313
  26   1.0000      -0.265747        -7.2313
  27   1.0000      -0.212306        -5.7771
  28   1.0000      -0.171944        -4.6788
  29   1.0000      -0.171942        -4.6788
  30   0.0000      -0.103413        -2.8140
  31   0.0000      -0.077032        -2.0962
  32   0.0000      -0.077032        -2.0962
  33   0.0000      -0.009937        -0.2704
  34   0.0000      -0.009937        -0.2704

MULLIKEN ATOMIC CHARGES AND SPIN POPULATIONS
--------------------------------------------
   0 Co:    0.446823    1.949867
   1 Br:   -0.446823    0.050133
Sum of atomic charges         :   -0.0000000

LOEWDIN ATOMIC CHARGES AND SPIN POPULATIONS
-------------------------------------------
   0 Co:   -0.082046    1.890363
   1 Br:    0.082046    0.109637

  Mayer bond orders larger than 0.100000
B(  0-Co,  1-Br) :   1.2307

Dispersion correction           -0.001551831
FINAL SINGLE POINT ENERGY     -3956.959017789310

DIPOLE MOMENT
-------------
                                X             Y             Z
Electronic contribution:      0.00000       0.00000       0.94056
Nuclear contribution   :      0.00000       0.00000      -2.84584
                        -----------------------------------------
Total Dipole Moment    :      0.00000       0.00000      -1.90527
                        -----------------------------------------
Magnitude (a.u.)       :      1.90527
Magnitude (Debye)      :      4.84282

Rotational constants in cm-1:     0.000000     0.102086     0.102086
Rotational constants in MHz :     0.000000  3060.463500  3060.463500

                             ****ORCA TERMINATED NORMALLY****
TOTAL RUN TIME: 0 days 0 hours 3 minutes 9 seconds 888 msec
