                         Program Version 4.2.0 -  RELEASE  -
|  1> #
|  2> # 41_CoO tpssh/aug-cc-pvtz
|  3> #
|  4> ! tpssh d3bj aug-cc-pvtz def2/jk grid4 nofinalgrid
|  5>
|  6> *xyz 0 4
|  7>   Co  0.00000000000000      0.00000000000000      0.18722579130779
|  8>   O   0.00000000000000      0.00000000000000      1.81277420869221
|  9> *
| 10>
| 11> %pal
| 12> nprocs 24
| 13> end
| 14>
| 15>
| 16>                          ****END OF INPUT****

CARTESIAN COORDINATES (ANGSTROEM)
---------------------------------
  Co     0.000000    0.000000    0.187226
  O      0.000000    0.000000    1.812774

 Total Charge           Charge          ....    0
 Multiplicity           Mult            ....    4
 Number of Electrons    NEL             ....   35
 Basis Dimension        Dim             ....  139

ORBITAL ENERGIES
----------------
                 SPIN UP ORBITALS
  NO   OCC          E(Eh)            E(eV)
   0   1.0000    -277.289833     -7545.4400
   1   1.0000     -32.688728      -889.5055
   2   1.0000     -28.336115      -771.0649
   3   1.0000     -28.286771      -769.7222
   4   1.0000     -28.286771      -769.7222
   5   1.0000     -19.038457      -518.0628
   6   1.0000      -3.723400      -101.3189
   7   1.0000      -2.476331       -67.3844
   8   1.0000      -2.370535       -64.5055
   9   1.0000      -2.370535       -64.5055
  10   1.0000      -0.866419       -23.5765
  11   1.0000      -0.360571        -9.8116
  12   1.0000      -0.348210        -9.4753
  13   1.0000      -0.348210        -9.4753
  14   1.0000      -0.237539        -6.4638
  15   1.0000      -0.237539        -6.4638
  16   1.0000      -0.233803        -6.3621
  17   1.0000      -0.231203        -6.2914
  18   1.0000      -0.231203        -6.2914
  19   0.0000      -0.120429        -3.2770
  20   0.0000      -0.014406        -0.3920
  21   0.0000      -0.014406        -0.3920
  22   0.0000       0.007276         0.1980
  23   0.0000       0.015768         0.4291

                 SPIN DOWN ORBITALS
  NO   OCC          E(Eh)            E(eV)
   0   1.0000    -277.288437     -7545.4020
   1   1.0000     -32.650084      -888.4539
   2   1.0000     -28.290600      -769.8264
   3   1.0000     -28.260712      -769.0131
   4   1.0000     -28.260712      -769.0131
   5   1.0000     -19.021503      -517.6014
   6   1.0000      -3.627631       -98.7129
   7   1.0000      -2.325798       -63.2882
   8   1.0000      -2.299469       -62.5717
   9   1.0000      -2.299469       -62.5717
  10   1.0000      -0.826280       -22.4842
  11   1.0000      -0.310214        -8.4414
  12   1.0000      -0.261782        -7.1234
  13   1.0000      -0.261782        -7.1234
  14   1.0000      -0.184204        -5.0124
  15   1.0000      -0.184203        -5.0124
  16   0.0000      -0.132132        -3.5955
  17   0.0000      -0.095015        -2.5855
  18   0.0000      -0.095015        -2.5855
  19   0.0000      -0.078888        -2.1466
  20   0.0000       0.006081         0.1655

MULLIKEN ATOMIC CHARGES AND SPIN POPULATIONS
--------------------------------------------
   0 Co:    0.595108    2.336191
   1 O :   -0.595108    0.663809
Sum of atomic charges         :   -0.0000000

LOEWDIN ATOMIC CHARGES AND SPIN POPULATIONS
-------------------------------------------
   0 Co:    0.536486    2.330727
   1 O :   -0.536486    0.669273

  Mayer bond orders larger than 0.100000
B(  0-Co,  1-O ) :   2.0154

Dispersion correction           -0.000658538
FINAL SINGLE POINT ENERGY     -1458.006498506914

DIPOLE MOMENT
-------------
                                X             Y             Z
Electronic contribution:     -0.00000      -0.00000      -3.60598
Nuclear contribution   :      0.00000       0.00000       1.61802
                        -----------------------------------------
Total Dipole Moment    :     -0.00000      -0.00000      -1.98796
                        -----------------------------------------
Magnitude (a.u.)       :      1.98796
Magnitude (Debye)      :      5.05300

Rotational constants in cm-1:     0.000000     0.507011     0.507011
Rotational constants in MHz :     0.000000 15199.819890 15199.819890

                             ****ORCA TERMINATED NORMALLY****
TOTAL RUN TIME: 0 days 0 hours 2 minutes 38 seconds 583 msec
