                         Program Version 4.2.0 -  RELEASE  -
|  1> #
|  2> # 44_NiF tpssh/aug-cc-pvtz
|  3> #
|  4> ! tpssh d3bj aug-cc-pvtz def2/jk grid4 nofinalgrid
|  5>
|  6> *xyz 0 2
|  7>   Ni  0.00000000000000      0.00000000000000      0.12374716283349
|  8>   F   0.00000000000000      0.00000000000000      1.87625283716651
|  9> *
| 10>
| 11> %pal
| 12> nprocs 24
| 13> end
| 14>
| 15>
| 16>                          ****END OF INPUT****

CARTESIAN COORDINATES (ANGSTROEM)
---------------------------------
  Ni     0.000000    0.000000    0.123747
  F      0.000000    0.000000    1.876253

 Total Charge           Charge          ....    0
 Multiplicity           Mult            ....    2
 Number of Electrons    NEL             ....   37
 Basis Dimension        Dim             ....  139

ORBITAL ENERGIES
----------------
                 SPIN UP ORBITALS
  NO   OCC          E(Eh)            E(eV)
   0   1.0000    -299.552322     -8151.2331
   1   1.0000     -35.555742      -967.5209
   2   1.0000     -30.973240      -842.8247
   3   1.0000     -30.942966      -842.0009
   4   1.0000     -30.942966      -842.0009
   5   1.0000     -24.499981      -666.6784
   6   1.0000      -3.942678      -107.2857
   7   1.0000      -2.576033       -70.0974
   8   1.0000      -2.509889       -68.2976
   9   1.0000      -2.509889       -68.2976
  10   1.0000      -1.035217       -28.1697
  11   1.0000      -0.365133        -9.9358
  12   1.0000      -0.319126        -8.6839
  13   1.0000      -0.319126        -8.6839
  14   1.0000      -0.241377        -6.5682
  15   1.0000      -0.214077        -5.8253
  16   1.0000      -0.214077        -5.8253
  17   1.0000      -0.211828        -5.7641
  18   1.0000      -0.211828        -5.7641
  19   0.0000      -0.117164        -3.1882
  20   0.0000      -0.009815        -0.2671
  21   0.0000      -0.009814        -0.2671
  22   0.0000       0.010855         0.2954
  23   0.0000       0.018510         0.5037

                 SPIN DOWN ORBITALS
  NO   OCC          E(Eh)            E(eV)
   0   1.0000    -299.551835     -8151.2198
   1   1.0000     -35.539297      -967.0734
   2   1.0000     -30.950943      -842.2180
   3   1.0000     -30.933396      -841.7405
   4   1.0000     -30.933396      -841.7405
   5   1.0000     -24.500073      -666.6809
   6   1.0000      -3.901930      -106.1769
   7   1.0000      -2.497037       -67.9478
   8   1.0000      -2.486611       -67.6641
   9   1.0000      -2.486611       -67.6641
  10   1.0000      -1.035258       -28.1708
  11   1.0000      -0.348699        -9.4886
  12   1.0000      -0.317244        -8.6326
  13   1.0000      -0.317244        -8.6326
  14   1.0000      -0.204222        -5.5572
  15   1.0000      -0.204222        -5.5572
  16   1.0000      -0.185020        -5.0347
  17   1.0000      -0.185020        -5.0347
  18   0.0000      -0.122853        -3.3430
  19   0.0000      -0.074378        -2.0239
  20   0.0000      -0.003644        -0.0992
  21   0.0000      -0.003644        -0.0992
  22   0.0000       0.013589         0.3698

MULLIKEN ATOMIC CHARGES AND SPIN POPULATIONS
--------------------------------------------
   0 Ni:    0.644030    0.978847
   1 F :   -0.644030    0.021153
Sum of atomic charges         :   -0.0000000

LOEWDIN ATOMIC CHARGES AND SPIN POPULATIONS
-------------------------------------------
   0 Ni:    0.455355    0.970684
   1 F :   -0.455355    0.029316

  Mayer bond orders larger than 0.100000
B(  0-Ni,  1-F ) :   0.6705

Dispersion correction           -0.000505196
FINAL SINGLE POINT ENERGY     -1608.245867724656

DIPOLE MOMENT
-------------
                                X             Y             Z
Electronic contribution:      0.00000       0.00000      -1.73516
Nuclear contribution   :      0.00000       0.00000      -0.15532
                        -----------------------------------------
Total Dipole Moment    :      0.00000       0.00000      -1.89048
                        -----------------------------------------
Magnitude (a.u.)       :      1.89048
Magnitude (Debye)      :      4.80522

Rotational constants in cm-1:     0.000000     0.382421     0.382421
Rotational constants in MHz :     0.000000 11464.697327 11464.697327

                             ****ORCA TERMINATED NORMALLY****
TOTAL RUN TIME: 0 days 0 hours 1 minutes 8 seconds 925 msec
