                         Program Version 4.2.0 -  RELEASE  -
|  1> #
|  2> # 47_NiO tpssh/aug-cc-pvtz
|  3> #
|  4> ! tpssh d3bj aug-cc-pvtz def2/jk grid4 nofinalgrid
|  5>
|  6> *xyz 0 3
|  7>   Ni  0.00000000000000      0.00000000000000      0.18512940996137
|  8>   O   0.00000000000000      0.00000000000000      1.81487059003863
|  9> *
| 10>
| 11> %pal
| 12> nprocs 24
| 13> end
| 14>
| 15>
| 16>                          ****END OF INPUT****

CARTESIAN COORDINATES (ANGSTROEM)
---------------------------------
  Ni     0.000000    0.000000    0.185129
  O      0.000000    0.000000    1.814871

 Total Charge           Charge          ....    0
 Multiplicity           Mult            ....    3
 Number of Electrons    NEL             ....   36
 Basis Dimension        Dim             ....  139

ORBITAL ENERGIES
----------------
                 SPIN UP ORBITALS
  NO   OCC          E(Eh)            E(eV)
   0   1.0000    -299.621380     -8153.1123
   1   1.0000     -35.643021      -969.8959
   2   1.0000     -31.054261      -845.0294
   3   1.0000     -31.030226      -844.3754
   4   1.0000     -31.030192      -844.3745
   5   1.0000     -19.069007      -518.8941
   6   1.0000      -4.024987      -109.5255
   7   1.0000      -2.649210       -72.0887
   8   1.0000      -2.593805       -70.5810
   9   1.0000      -2.593737       -70.5792
  10   1.0000      -0.894685       -24.3456
  11   1.0000      -0.368164       -10.0182
  12   1.0000      -0.367478        -9.9996
  13   1.0000      -0.367469        -9.9993
  14   1.0000      -0.274988        -7.4828
  15   1.0000      -0.274988        -7.4828
  16   1.0000      -0.260860        -7.0984
  17   1.0000      -0.260839        -7.0978
  18   1.0000      -0.235113        -6.3978
  19   0.0000      -0.121101        -3.2953
  20   0.0000      -0.008895        -0.2420
  21   0.0000      -0.008894        -0.2420
  22   0.0000       0.010694         0.2910
  23   0.0000       0.017116         0.4658

                 SPIN DOWN ORBITALS
  NO   OCC          E(Eh)            E(eV)
   0   1.0000    -299.620921     -8153.0998
   1   1.0000     -35.617079      -969.1900
   2   1.0000     -31.025131      -844.2367
   3   1.0000     -31.011936      -843.8777
   4   1.0000     -31.011920      -843.8772
   5   1.0000     -19.044716      -518.2331
   6   1.0000      -3.964773      -107.8870
   7   1.0000      -2.565403       -69.8082
   8   1.0000      -2.542646       -69.1889
   9   1.0000      -2.542634       -69.1886
  10   1.0000      -0.836311       -22.7572
  11   1.0000      -0.348557        -9.4847
  12   1.0000      -0.276021        -7.5109
  13   1.0000      -0.276009        -7.5106
  14   1.0000      -0.244964        -6.6658
  15   1.0000      -0.244964        -6.6658
  16   1.0000      -0.221362        -6.0236
  17   0.0000      -0.128292        -3.4910
  18   0.0000      -0.128268        -3.4903
  19   0.0000      -0.104359        -2.8398
  20   0.0000      -0.002277        -0.0620
  21   0.0000      -0.002276        -0.0619

MULLIKEN ATOMIC CHARGES AND SPIN POPULATIONS
--------------------------------------------
   0 Ni:    0.551111    1.096800
   1 O :   -0.551111    0.903200
Sum of atomic charges         :   -0.0000000

LOEWDIN ATOMIC CHARGES AND SPIN POPULATIONS
-------------------------------------------
   0 Ni:    0.514401    1.183872
   1 O :   -0.514401    0.816128

  Mayer bond orders larger than 0.100000
B(  0-Ni,  1-O ) :   1.9205

Dispersion correction           -0.000683129
FINAL SINGLE POINT ENERGY     -1583.566989303340

DIPOLE MOMENT
-------------
                                X             Y             Z
Electronic contribution:      0.00000       0.00000      -2.70247
Nuclear contribution   :      0.00000       0.00000       0.89170
                        -----------------------------------------
Total Dipole Moment    :      0.00000       0.00000      -1.81077
                        -----------------------------------------
Magnitude (a.u.)       :      1.81077
Magnitude (Debye)      :      4.60260

Rotational constants in cm-1:     0.000000     0.504828     0.504828
Rotational constants in MHz :     0.000000 15134.363944 15134.363944

                             ****ORCA TERMINATED NORMALLY****
TOTAL RUN TIME: 0 days 0 hours 3 minutes 2 seconds 30 msec
