                         Program Version 4.2.0 -  RELEASE  -
|  1> #
|  2> # 48_NiS tpssh/aug-cc-pvtz
|  3> #
|  4> ! tpssh d3bj aug-cc-pvtz def2/jk grid4 nofinalgrid
|  5>
|  6> *xyz 0 3
|  7>   Ni  0.00000000000000      0.00000000000000      0.01491413562016
|  8>   S   0.00000000000000      0.00000000000000      1.98508586437984
|  9> *
| 10>
| 11> %pal
| 12> nprocs 24
| 13> end
| 14>
| 15>
| 16>                          ****END OF INPUT****

CARTESIAN COORDINATES (ANGSTROEM)
---------------------------------
  Ni     0.000000    0.000000    0.014914
  S      0.000000    0.000000    1.985086

 Total Charge           Charge          ....    0
 Multiplicity           Mult            ....    3
 Number of Electrons    NEL             ....   44
 Basis Dimension        Dim             ....  143

ORBITAL ENERGIES
----------------
                 SPIN UP ORBITALS
  NO   OCC          E(Eh)            E(eV)
   0   1.0000    -299.607828     -8152.7435
   1   1.0000     -88.730380     -2414.4764
   2   1.0000     -35.624889      -969.4025
   3   1.0000     -31.035501      -844.5189
   4   1.0000     -31.013208      -843.9123
   5   1.0000     -31.013208      -843.9123
   6   1.0000      -7.853813      -213.7131
   7   1.0000      -5.803515      -157.9217
   8   1.0000      -5.803515      -157.9217
   9   1.0000      -5.799620      -157.8157
  10   1.0000      -4.007270      -109.0434
  11   1.0000      -2.628793       -71.5331
  12   1.0000      -2.578272       -70.1583
  13   1.0000      -2.578272       -70.1583
  14   1.0000      -0.649918       -17.6852
  15   1.0000      -0.330279        -8.9873
  16   1.0000      -0.330279        -8.9873
  17   1.0000      -0.329801        -8.9743
  18   1.0000      -0.262938        -7.1549
  19   1.0000      -0.262937        -7.1549
  20   1.0000      -0.239536        -6.5181
  21   1.0000      -0.234678        -6.3859
  22   1.0000      -0.234678        -6.3859
  23   0.0000      -0.112631        -3.0648
  24   0.0000      -0.009455        -0.2573
  25   0.0000      -0.009455        -0.2573
  26   0.0000       0.010896         0.2965
  27   0.0000       0.011869         0.3230

                 SPIN DOWN ORBITALS
  NO   OCC          E(Eh)            E(eV)
   0   1.0000    -299.607397     -8152.7318
   1   1.0000     -88.725697     -2414.3490
   2   1.0000     -35.600961      -968.7514
   3   1.0000     -31.008728      -843.7904
   4   1.0000     -30.996337      -843.4532
   5   1.0000     -30.996337      -843.4532
   6   1.0000      -7.849369      -213.5922
   7   1.0000      -5.797356      -157.7541
   8   1.0000      -5.794691      -157.6816
   9   1.0000      -5.794691      -157.6816
  10   1.0000      -3.951069      -107.5141
  11   1.0000      -2.550849       -69.4121
  12   1.0000      -2.530327       -68.8537
  13   1.0000      -2.530327       -68.8537
  14   1.0000      -0.616275       -16.7697
  15   1.0000      -0.316652        -8.6165
  16   1.0000      -0.248895        -6.7728
  17   1.0000      -0.248895        -6.7728
  18   1.0000      -0.234670        -6.3857
  19   1.0000      -0.234669        -6.3857
  20   1.0000      -0.230286        -6.2664
  21   0.0000      -0.137244        -3.7346
  22   0.0000      -0.137244        -3.7346
  23   0.0000      -0.098296        -2.6748
  24   0.0000      -0.002755        -0.0750
  25   0.0000      -0.002755        -0.0750

MULLIKEN ATOMIC CHARGES AND SPIN POPULATIONS
--------------------------------------------
   0 Ni:    0.267400    1.080827
   1 S :   -0.267400    0.919173
Sum of atomic charges         :   -0.0000000

LOEWDIN ATOMIC CHARGES AND SPIN POPULATIONS
-------------------------------------------
   0 Ni:   -0.004820    1.177889
   1 S :    0.004820    0.822111

  Mayer bond orders larger than 0.100000
B(  0-Ni,  1-S ) :   2.2816

Dispersion correction           -0.001628159
FINAL SINGLE POINT ENERGY     -1906.597091590095

DIPOLE MOMENT
-------------
                                X             Y             Z
Electronic contribution:     -0.00000      -0.00000      -3.38600
Nuclear contribution   :      0.00000       0.00000       1.70320
                        -----------------------------------------
Total Dipole Moment    :     -0.00000      -0.00000      -1.68280
                        -----------------------------------------
Magnitude (a.u.)       :      1.68280
Magnitude (Debye)      :      4.27734

Rotational constants in cm-1:     0.000000     0.209451     0.209451
Rotational constants in MHz :     0.000000  6279.170942  6279.170942

                             ****ORCA TERMINATED NORMALLY****
TOTAL RUN TIME: 0 days 0 hours 2 minutes 42 seconds 318 msec
