                         Program Version 4.2.0 -  RELEASE  -
|  1> #
|  2> # 49_CuH tpssh/aug-cc-pvtz
|  3> #
|  4> ! tpssh d3bj aug-cc-pvtz def2/jk grid4 nofinalgrid
|  5>
|  6> *xyz 0 1
|  7>   Cu  0.00000000000000      0.00000000000000      0.26188782360473
|  8>   H   0.00000000000000      0.00000000000000      1.73811217639527
|  9> *
| 10>
| 11> %pal
| 12> nprocs 24
| 13> end
| 14>
| 15>
| 16>                          ****END OF INPUT****

CARTESIAN COORDINATES (ANGSTROEM)
---------------------------------
  Cu     0.000000    0.000000    0.261888
  H      0.000000    0.000000    1.738112

 Total Charge           Charge          ....    0
 Multiplicity           Mult            ....    1
 Number of Electrons    NEL             ....   30
 Basis Dimension        Dim             ....  116

ORBITAL ENERGIES
----------------

  NO   OCC          E(Eh)            E(eV)
   0   2.0000    -322.745713     -8782.3573
   1   2.0000     -38.624325     -1051.0213
   2   2.0000     -33.801029      -919.7728
   3   2.0000     -33.798785      -919.7117
   4   2.0000     -33.798785      -919.7117
   5   2.0000      -4.243050      -115.4593
   6   2.0000      -2.739110       -74.5350
   7   2.0000      -2.730582       -74.3029
   8   2.0000      -2.730582       -74.3029
   9   2.0000      -0.312569        -8.5054
  10   2.0000      -0.246790        -6.7155
  11   2.0000      -0.246790        -6.7155
  12   2.0000      -0.239240        -6.5101
  13   2.0000      -0.239240        -6.5100
  14   2.0000      -0.214456        -5.8356
  15   0.0000      -0.084361        -2.2956
  16   0.0000      -0.013338        -0.3630
  17   0.0000      -0.013338        -0.3629
  18   0.0000       0.013617         0.3705
  19   0.0000       0.023100         0.6286

MULLIKEN ATOMIC CHARGES
-----------------------
   0 Cu:    0.030638
   1 H :   -0.030638
Sum of atomic charges:   -0.0000000

LOEWDIN ATOMIC CHARGES
----------------------
   0 Cu:    0.492281
   1 H :   -0.492281

  Mayer bond orders larger than 0.100000
B(  0-Cu,  1-H ) :   1.0453

Dispersion correction           -0.000384481
FINAL SINGLE POINT ENERGY     -1641.138589272413

DIPOLE MOMENT
-------------
                                X             Y             Z
Electronic contribution:      0.00000       0.00000      -2.55934
Nuclear contribution   :      0.00000       0.00000       1.48294
                        -----------------------------------------
Total Dipole Moment    :      0.00000       0.00000      -1.07640
                        -----------------------------------------
Magnitude (a.u.)       :      1.07640
Magnitude (Debye)      :      2.73600

Rotational constants in cm-1:     0.000000     7.795898     7.795898
Rotational constants in MHz :     0.000000 233715.143643 233715.143643

                             ****ORCA TERMINATED NORMALLY****
TOTAL RUN TIME: 0 days 0 hours 1 minutes 14 seconds 880 msec
