                         Program Version 4.2.0 -  RELEASE  -
|  1> #
|  2> # 52_CuBr tpssh/aug-cc-pvtz
|  3> #
|  4> ! tpssh d3bj aug-cc-pvtz def2/jk grid4 nofinalgrid
|  5>
|  6> *xyz 0 1
|  7>   Cu  0.00000000000000      0.00000000000000     -0.09600479667781
|  8>   Br  0.00000000000000      0.00000000000000      2.09600479667781
|  9> *
| 10>
| 11> %pal
| 12> nprocs 24
| 13> end
| 14>
| 15>
| 16>                          ****END OF INPUT****

CARTESIAN COORDINATES (ANGSTROEM)
---------------------------------
  Cu     0.000000    0.000000   -0.096005
  Br     0.000000    0.000000    2.096005

 Total Charge           Charge          ....    0
 Multiplicity           Mult            ....    1
 Number of Electrons    NEL             ....   64
 Basis Dimension        Dim             ....  152

ORBITAL ENERGIES
----------------

  NO   OCC          E(Eh)            E(eV)
   0   2.0000    -482.526965    -13130.2262
   1   2.0000    -322.770406     -8783.0293
   2   2.0000     -62.240152     -1693.6406
   3   2.0000     -56.025268     -1524.5251
   4   2.0000     -56.023317     -1524.4719
   5   2.0000     -56.023317     -1524.4719
   6   2.0000     -38.645117     -1051.5871
   7   2.0000     -33.820734      -920.3089
   8   2.0000     -33.820734      -920.3089
   9   2.0000     -33.820693      -920.3078
  10   2.0000      -8.582383      -233.5385
  11   2.0000      -6.399777      -174.1468
  12   2.0000      -6.393367      -173.9724
  13   2.0000      -6.393367      -173.9724
  14   2.0000      -4.268497      -116.1517
  15   2.0000      -2.763472       -75.1979
  16   2.0000      -2.757772       -75.0428
  17   2.0000      -2.757772       -75.0428
  18   2.0000      -2.524589       -68.6976
  19   2.0000      -2.522770       -68.6481
  20   2.0000      -2.522770       -68.6481
  21   2.0000      -2.517811       -68.5131
  22   2.0000      -2.517769       -68.5120
  23   2.0000      -0.704356       -19.1665
  24   2.0000      -0.330406        -8.9908
  25   2.0000      -0.294296        -8.0082
  26   2.0000      -0.294296        -8.0082
  27   2.0000      -0.268074        -7.2947
  28   2.0000      -0.268069        -7.2945
  29   2.0000      -0.249574        -6.7913
  30   2.0000      -0.237712        -6.4685
  31   2.0000      -0.237712        -6.4685
  32   0.0000      -0.120715        -3.2848
  33   0.0000      -0.012691        -0.3453
  34   0.0000      -0.012691        -0.3453
  35   0.0000       0.010299         0.2803
  36   0.0000       0.012419         0.3379

MULLIKEN ATOMIC CHARGES
-----------------------
   0 Cu:    0.516092
   1 Br:   -0.516092
Sum of atomic charges:    0.0000000

LOEWDIN ATOMIC CHARGES
----------------------
   0 Cu:   -0.063298
   1 Br:    0.063298

  Mayer bond orders larger than 0.100000
B(  0-Cu,  1-Br) :   0.9448

Dispersion correction           -0.001430405
FINAL SINGLE POINT ENERGY     -4214.733644732274

DIPOLE MOMENT
-------------
                                X             Y             Z
Electronic contribution:      0.00000       0.00000       0.80486
Nuclear contribution   :      0.00000       0.00000      -2.68116
                        -----------------------------------------
Total Dipole Moment    :      0.00000       0.00000      -1.87630
                        -----------------------------------------
Magnitude (a.u.)       :      1.87630
Magnitude (Debye)      :      4.76916

Rotational constants in cm-1:     0.000000     0.099117     0.099117
Rotational constants in MHz :     0.000000  2971.467067  2971.467067

                             ****ORCA TERMINATED NORMALLY****
TOTAL RUN TIME: 0 days 0 hours 1 minutes 59 seconds 578 msec
