                         Program Version 4.2.0 -  RELEASE  -
|  1> #
|  2> # 54_CuS tpssh/aug-cc-pvtz
|  3> #
|  4> ! tpssh d3bj aug-cc-pvtz def2/jk grid4 nofinalgrid
|  5>
|  6> *xyz 0 2
|  7>   Cu  0.00000000000000      0.00000000000000     -0.02892798555449
|  8>   S   0.00000000000000      0.00000000000000      2.02892798555449
|  9> *
| 10>
| 11> %pal
| 12> nprocs 24
| 13> end
| 14>
| 15>
| 16>                          ****END OF INPUT****

CARTESIAN COORDINATES (ANGSTROEM)
---------------------------------
  Cu     0.000000    0.000000   -0.028928
  S      0.000000    0.000000    2.028928

 Total Charge           Charge          ....    0
 Multiplicity           Mult            ....    2
 Number of Electrons    NEL             ....   45
 Basis Dimension        Dim             ....  143

ORBITAL ENERGIES
----------------
                 SPIN UP ORBITALS
  NO   OCC          E(Eh)            E(eV)
   0   1.0000    -322.787079     -8783.4830
   1   1.0000     -88.733424     -2414.5592
   2   1.0000     -38.667951     -1052.2084
   3   1.0000     -33.845062      -920.9710
   4   1.0000     -33.844437      -920.9539
   5   1.0000     -33.838991      -920.8057
   6   1.0000      -7.856182      -213.7776
   7   1.0000      -5.813489      -158.1931
   8   1.0000      -5.802910      -157.9052
   9   1.0000      -5.797363      -157.7543
  10   1.0000      -4.289341      -116.7189
  11   1.0000      -2.787672       -75.8564
  12   1.0000      -2.780913       -75.6725
  13   1.0000      -2.770591       -75.3916
  14   1.0000      -0.649961       -17.6863
  15   1.0000      -0.325102        -8.8465
  16   1.0000      -0.320336        -8.7168
  17   1.0000      -0.302144        -8.2218
  18   1.0000      -0.281537        -7.6610
  19   1.0000      -0.281437        -7.6583
  20   1.0000      -0.251944        -6.8558
  21   1.0000      -0.248604        -6.7648
  22   1.0000      -0.216715        -5.8971
  23   0.0000      -0.113317        -3.0835
  24   0.0000      -0.013006        -0.3539
  25   0.0000      -0.008263        -0.2249
  26   0.0000       0.011487         0.3126
  27   0.0000       0.012087         0.3289

                 SPIN DOWN ORBITALS
  NO   OCC          E(Eh)            E(eV)
   0   1.0000    -322.787036     -8783.4818
   1   1.0000     -88.728855     -2414.4349
   2   1.0000     -38.664990     -1052.1279
   3   1.0000     -33.841702      -920.8795
   4   1.0000     -33.841124      -920.8638
   5   1.0000     -33.838089      -920.7812
   6   1.0000      -7.851753      -213.6571
   7   1.0000      -5.800207      -157.8317
   8   1.0000      -5.799007      -157.7990
   9   1.0000      -5.794783      -157.6841
  10   1.0000      -4.282853      -116.5424
  11   1.0000      -2.778608       -75.6098
  12   1.0000      -2.772062       -75.4316
  13   1.0000      -2.768432       -75.3329
  14   1.0000      -0.611111       -16.6292
  15   1.0000      -0.318003        -8.6533
  16   1.0000      -0.298391        -8.1196
  17   1.0000      -0.287923        -7.8348
  18   1.0000      -0.278320        -7.5735
  19   1.0000      -0.278287        -7.5726
  20   1.0000      -0.243409        -6.6235
  21   1.0000      -0.207191        -5.6380
  22   0.0000      -0.156056        -4.2465
  23   0.0000      -0.109530        -2.9805
  24   0.0000      -0.008486        -0.2309
  25   0.0000      -0.006416        -0.1746
  26   0.0000       0.012316         0.3351

MULLIKEN ATOMIC CHARGES AND SPIN POPULATIONS
--------------------------------------------
   0 Cu:    0.419976    0.075303
   1 S :   -0.419976    0.924697
Sum of atomic charges         :   -0.0000000

LOEWDIN ATOMIC CHARGES AND SPIN POPULATIONS
-------------------------------------------
   0 Cu:   -0.029825    0.180672
   1 S :    0.029825    0.819328

  Mayer bond orders larger than 0.100000
B(  0-Cu,  1-S ) :   1.3168

Dispersion correction           -0.001435585
FINAL SINGLE POINT ENERGY     -2038.780711681766

DIPOLE MOMENT
-------------
                                X             Y             Z
Electronic contribution:      0.00000      -0.00000      -5.21797
Nuclear contribution   :      0.00000       0.00000       3.54103
                        -----------------------------------------
Total Dipole Moment    :      0.00000      -0.00000      -1.67694
                        -----------------------------------------
Magnitude (a.u.)       :      1.67694
Magnitude (Debye)      :      4.26244

Rotational constants in cm-1:     0.000000     0.186806     0.186806
Rotational constants in MHz :     0.000000  5600.307820  5600.307820

                             ****ORCA TERMINATED NORMALLY****
TOTAL RUN TIME: 0 days 0 hours 2 minutes 4 seconds 985 msec
