                         Program Version 4.2.0 -  RELEASE  -
|  1> #
|  2> # 55_ZnH tpssh/aug-cc-pvtz
|  3> #
|  4> ! tpssh d3bj aug-cc-pvtz def2/jk grid4 nofinalgrid
|  5>
|  6> *xyz 0 2
|  7>   Zn  0.00000000000000      0.00000000000000      0.19402109306576
|  8>   H   0.00000000000000      0.00000000000000      1.80597890693424
|  9> *
| 10>
| 11> %pal
| 12> nprocs 24
| 13> end
| 14>
| 15>
| 16>                          ****END OF INPUT****

CARTESIAN COORDINATES (ANGSTROEM)
---------------------------------
  Zn     0.000000    0.000000    0.194021
  H      0.000000    0.000000    1.805979

 Total Charge           Charge          ....    0
 Multiplicity           Mult            ....    2
 Number of Electrons    NEL             ....   31
 Basis Dimension        Dim             ....  116

ORBITAL ENERGIES
----------------
                 SPIN UP ORBITALS
  NO   OCC          E(Eh)            E(eV)
   0   1.0000    -347.004638     -9442.4762
   1   1.0000     -42.030775     -1143.7155
   2   1.0000     -36.980241     -1006.2835
   3   1.0000     -36.980241     -1006.2835
   4   1.0000     -36.978742     -1006.2427
   5   1.0000      -4.776416      -129.9729
   6   1.0000      -3.164117       -86.1000
   7   1.0000      -3.164117       -86.1000
   8   1.0000      -3.159353       -85.9704
   9   1.0000      -0.467528       -12.7221
  10   1.0000      -0.459114       -12.4931
  11   1.0000      -0.459114       -12.4931
  12   1.0000      -0.455514       -12.3952
  13   1.0000      -0.455514       -12.3952
  14   1.0000      -0.327191        -8.9033
  15   1.0000      -0.184207        -5.0125
  16   0.0000      -0.045802        -1.2463
  17   0.0000      -0.045802        -1.2463
  18   0.0000       0.003225         0.0878
  19   0.0000       0.015971         0.4346
  20   0.0000       0.034054         0.9266

                 SPIN DOWN ORBITALS
  NO   OCC          E(Eh)            E(eV)
   0   1.0000    -347.003830     -9442.4543
   1   1.0000     -42.030636     -1143.7118
   2   1.0000     -36.980394     -1006.2877
   3   1.0000     -36.980394     -1006.2877
   4   1.0000     -36.977553     -1006.2104
   5   1.0000      -4.775387      -129.9449
   6   1.0000      -3.163227       -86.0758
   7   1.0000      -3.163227       -86.0758
   8   1.0000      -3.158114       -85.9366
   9   1.0000      -0.458698       -12.4818
  10   1.0000      -0.456554       -12.4235
  11   1.0000      -0.456554       -12.4235
  12   1.0000      -0.452227       -12.3057
  13   1.0000      -0.452227       -12.3057
  14   1.0000      -0.296332        -8.0636
  15   0.0000      -0.104719        -2.8495
  16   0.0000      -0.029217        -0.7950
  17   0.0000      -0.029217        -0.7950
  18   0.0000       0.012374         0.3367
  19   0.0000       0.029694         0.8080

MULLIKEN ATOMIC CHARGES AND SPIN POPULATIONS
--------------------------------------------
   0 Zn:    0.105619    0.670839
   1 H :   -0.105619    0.329161
Sum of atomic charges         :    0.0000000

LOEWDIN ATOMIC CHARGES AND SPIN POPULATIONS
-------------------------------------------
   0 Zn:    0.535582    0.779146
   1 H :   -0.535582    0.220854

  Mayer bond orders larger than 0.100000
B(  0-Zn,  1-H ) :   0.8476

Dispersion correction           -0.000469491
FINAL SINGLE POINT ENERGY     -1779.971721823792

DIPOLE MOMENT
-------------
                                X             Y             Z
Electronic contribution:     -0.00000       0.00000      -1.83418
Nuclear contribution   :      0.00000       0.00000       1.61237
                        -----------------------------------------
Total Dipole Moment    :     -0.00000       0.00000      -0.22181
                        -----------------------------------------
Magnitude (a.u.)       :      0.22181
Magnitude (Debye)      :      0.56379

Rotational constants in cm-1:     0.000000     6.535423     6.535423
Rotational constants in MHz :     0.000000 195927.048997 195927.048997

                             ****ORCA TERMINATED NORMALLY****
TOTAL RUN TIME: 0 days 0 hours 1 minutes 11 seconds 658 msec
