                         Program Version 4.2.0 -  RELEASE  -
|  1> #
|  2> # 56_ZnF tpssh/aug-cc-pvtz
|  3> #
|  4> ! tpssh d3bj aug-cc-pvtz def2/jk grid4 nofinalgrid
|  5>
|  6> *xyz 0 2
|  7>   Zn  0.00000000000000      0.00000000000000      0.10305473518103
|  8>   F   0.00000000000000      0.00000000000000      1.89694526481897
|  9> *
| 10>
| 11> %pal
| 12> nprocs 24
| 13> end
| 14>
| 15>
| 16>                          ****END OF INPUT****

CARTESIAN COORDINATES (ANGSTROEM)
---------------------------------
  Zn     0.000000    0.000000    0.103055
  F      0.000000    0.000000    1.896945

 Total Charge           Charge          ....    0
 Multiplicity           Mult            ....    2
 Number of Electrons    NEL             ....   39
 Basis Dimension        Dim             ....  139

ORBITAL ENERGIES
----------------
                 SPIN UP ORBITALS
  NO   OCC          E(Eh)            E(eV)
   0   1.0000    -347.024140     -9443.0069
   1   1.0000     -42.047276     -1144.1646
   2   1.0000     -36.997422     -1006.7510
   3   1.0000     -36.997422     -1006.7510
   4   1.0000     -36.994578     -1006.6736
   5   1.0000     -24.530526      -667.5095
   6   1.0000      -4.797002      -130.5330
   7   1.0000      -3.185775       -86.6894
   8   1.0000      -3.185775       -86.6894
   9   1.0000      -3.178976       -86.5043
  10   1.0000      -1.069654       -29.1068
  11   1.0000      -0.491639       -13.3782
  12   1.0000      -0.482162       -13.1203
  13   1.0000      -0.482161       -13.1203
  14   1.0000      -0.481725       -13.1084
  15   1.0000      -0.481725       -13.1084
  16   1.0000      -0.368565       -10.0292
  17   1.0000      -0.325893        -8.8680
  18   1.0000      -0.325893        -8.8680
  19   1.0000      -0.231001        -6.2859
  20   0.0000      -0.044766        -1.2181
  21   0.0000      -0.044766        -1.2181
  22   0.0000      -0.000451        -0.0123
  23   0.0000       0.006241         0.1698
  24   0.0000       0.032932         0.8961

                 SPIN DOWN ORBITALS
  NO   OCC          E(Eh)            E(eV)
   0   1.0000    -347.022956     -9442.9747
   1   1.0000     -42.047175     -1144.1618
   2   1.0000     -36.997728     -1006.7593
   3   1.0000     -36.997728     -1006.7593
   4   1.0000     -36.993436     -1006.6426
   5   1.0000     -24.526556      -667.4015
   6   1.0000      -4.795745      -130.4988
   7   1.0000      -3.184381       -86.6514
   8   1.0000      -3.184381       -86.6514
   9   1.0000      -3.178525       -86.4921
  10   1.0000      -1.060443       -28.8561
  11   1.0000      -0.482930       -13.1412
  12   1.0000      -0.477594       -12.9960
  13   1.0000      -0.477594       -12.9960
  14   1.0000      -0.477497       -12.9934
  15   1.0000      -0.477496       -12.9933
  16   1.0000      -0.348769        -9.4905
  17   1.0000      -0.323004        -8.7894
  18   1.0000      -0.323004        -8.7894
  19   0.0000      -0.153620        -4.1802
  20   0.0000      -0.018118        -0.4930
  21   0.0000      -0.018118        -0.4930
  22   0.0000       0.014055         0.3825
  23   0.0000       0.019869         0.5407

MULLIKEN ATOMIC CHARGES AND SPIN POPULATIONS
--------------------------------------------
   0 Zn:    0.653168    0.936712
   1 F :   -0.653168    0.063288
Sum of atomic charges         :   -0.0000000

LOEWDIN ATOMIC CHARGES AND SPIN POPULATIONS
-------------------------------------------
   0 Zn:    0.529583    0.830513
   1 F :   -0.529583    0.169487

  Mayer bond orders larger than 0.100000
B(  0-Zn,  1-F ) :   0.5505

Dispersion correction           -0.000497474
FINAL SINGLE POINT ENERGY     -1879.304064852840

DIPOLE MOMENT
-------------
                                X             Y             Z
Electronic contribution:      0.00000       0.00000      -1.90069
Nuclear contribution   :      0.00000       0.00000       0.74245
                        -----------------------------------------
Total Dipole Moment    :      0.00000       0.00000      -1.15824
                        -----------------------------------------
Magnitude (a.u.)       :      1.15824
Magnitude (Debye)      :      2.94400

Rotational constants in cm-1:     0.000000     0.355862     0.355862
Rotational constants in MHz :     0.000000 10668.470416 10668.470416

                             ****ORCA TERMINATED NORMALLY****
TOTAL RUN TIME: 0 days 0 hours 1 minutes 22 seconds 540 msec
