                         Program Version 4.2.0 -  RELEASE  -
|  1> #
|  2> # 57_ZnCl tpssh/aug-cc-pvtz
|  3> #
|  4> ! tpssh d3bj aug-cc-pvtz def2/jk grid4 nofinalgrid
|  5>
|  6> *xyz 0 2
|  7>   Zn  0.00000000000000      0.00000000000000     -0.08307444970280
|  8>   Cl  0.00000000000000      0.00000000000000      2.08307444970280
|  9> *
| 10>
| 11> %pal
| 12> nprocs 24
| 13> end
| 14>
| 15>
| 16>                          ****END OF INPUT****

CARTESIAN COORDINATES (ANGSTROEM)
---------------------------------
  Zn     0.000000    0.000000   -0.083074
  Cl     0.000000    0.000000    2.083074

 Total Charge           Charge          ....    0
 Multiplicity           Mult            ....    2
 Number of Electrons    NEL             ....   47
 Basis Dimension        Dim             ....  143

ORBITAL ENERGIES
----------------
                 SPIN UP ORBITALS
  NO   OCC          E(Eh)            E(eV)
   0   1.0000    -347.035600     -9443.3188
   1   1.0000    -101.376457     -2758.5936
   2   1.0000     -42.059336     -1144.4927
   3   1.0000     -37.009052     -1007.0675
   4   1.0000     -37.009052     -1007.0675
   5   1.0000     -37.007391     -1007.0223
   6   1.0000      -9.354791      -254.5568
   7   1.0000      -7.101857      -193.2514
   8   1.0000      -7.095717      -193.0843
   9   1.0000      -7.095717      -193.0843
  10   1.0000      -4.807470      -130.8179
  11   1.0000      -3.195253       -86.9473
  12   1.0000      -3.195253       -86.9473
  13   1.0000      -3.191028       -86.8323
  14   1.0000      -0.766481       -20.8570
  15   1.0000      -0.493069       -13.4171
  16   1.0000      -0.490675       -13.3520
  17   1.0000      -0.490669       -13.3518
  18   1.0000      -0.490036       -13.3346
  19   1.0000      -0.490036       -13.3346
  20   1.0000      -0.357351        -9.7240
  21   1.0000      -0.292738        -7.9658
  22   1.0000      -0.292738        -7.9658
  23   1.0000      -0.225284        -6.1303
  24   0.0000      -0.050036        -1.3616
  25   0.0000      -0.050036        -1.3616
  26   0.0000      -0.001641        -0.0447
  27   0.0000       0.002986         0.0812
  28   0.0000       0.028176         0.7667

                 SPIN DOWN ORBITALS
  NO   OCC          E(Eh)            E(eV)
   0   1.0000    -347.034467     -9443.2879
   1   1.0000    -101.375193     -2758.5592
   2   1.0000     -42.059307     -1144.4919
   3   1.0000     -37.009321     -1007.0748
   4   1.0000     -37.009321     -1007.0748
   5   1.0000     -37.006491     -1006.9978
   6   1.0000      -9.353668      -254.5262
   7   1.0000      -7.098037      -193.1474
   8   1.0000      -7.095107      -193.0677
   9   1.0000      -7.095107      -193.0677
  10   1.0000      -4.806410      -130.7891
  11   1.0000      -3.194153       -86.9173
  12   1.0000      -3.194153       -86.9173
  13   1.0000      -3.190553       -86.8194
  14   1.0000      -0.758271       -20.6336
  15   1.0000      -0.486827       -13.2472
  16   1.0000      -0.486480       -13.2378
  17   1.0000      -0.486474       -13.2376
  18   1.0000      -0.485975       -13.2240
  19   1.0000      -0.485975       -13.2240
  20   1.0000      -0.340006        -9.2520
  21   1.0000      -0.290357        -7.9010
  22   1.0000      -0.290357        -7.9010
  23   0.0000      -0.151757        -4.1295
  24   0.0000      -0.024812        -0.6752
  25   0.0000      -0.024812        -0.6752
  26   0.0000       0.008710         0.2370
  27   0.0000       0.016487         0.4486

MULLIKEN ATOMIC CHARGES AND SPIN POPULATIONS
--------------------------------------------
   0 Zn:    0.523441    0.873114
   1 Cl:   -0.523441    0.126886
Sum of atomic charges         :   -0.0000000

LOEWDIN ATOMIC CHARGES AND SPIN POPULATIONS
-------------------------------------------
   0 Zn:    0.227338    0.799751
   1 Cl:   -0.227338    0.200249

  Mayer bond orders larger than 0.100000
B(  0-Zn,  1-Cl) :   0.8002

Dispersion correction           -0.001431913
FINAL SINGLE POINT ENERGY     -2239.686903223182

DIPOLE MOMENT
-------------
                                X             Y             Z
Electronic contribution:      0.00000      -0.00000      -3.02878
Nuclear contribution   :      0.00000       0.00000       1.94334
                        -----------------------------------------
Total Dipole Moment    :      0.00000      -0.00000      -1.08545
                        -----------------------------------------
Magnitude (a.u.)       :      1.08545
Magnitude (Debye)      :      2.75899

Rotational constants in cm-1:     0.000000     0.156288     0.156288
Rotational constants in MHz :     0.000000  4685.390286  4685.390286

                             ****ORCA TERMINATED NORMALLY****
TOTAL RUN TIME: 0 days 0 hours 1 minutes 30 seconds 849 msec
