                         Program Version 4.2.0 -  RELEASE  -
|  1> #
|  2> # 58_ZnBr tpssh/aug-cc-pvtz
|  3> #
|  4> ! tpssh d3bj aug-cc-pvtz def2/jk grid4 nofinalgrid
|  5>
|  6> *xyz 0 2
|  7>   Zn  0.00000000000000      0.00000000000000     -0.15390624723259
|  8>   Br  0.00000000000000      0.00000000000000      2.15390624723258
|  9> *
| 10>
| 11> %pal
| 12> nprocs 24
| 13> end
| 14>
| 15>
| 16>                          ****END OF INPUT****

CARTESIAN COORDINATES (ANGSTROEM)
---------------------------------
  Zn     0.000000    0.000000   -0.153906
  Br     0.000000    0.000000    2.153906

 Total Charge           Charge          ....    0
 Multiplicity           Mult            ....    2
 Number of Electrons    NEL             ....   65
 Basis Dimension        Dim             ....  152

ORBITAL ENERGIES
----------------
                 SPIN UP ORBITALS
  NO   OCC          E(Eh)            E(eV)
   0   1.0000    -482.544381    -13130.7002
   1   1.0000    -347.036048     -9443.3310
   2   1.0000     -62.257634     -1694.1163
   3   1.0000     -56.043079     -1525.0097
   4   1.0000     -56.040795     -1524.9476
   5   1.0000     -56.040795     -1524.9476
   6   1.0000     -42.059875     -1144.5074
   7   1.0000     -37.009486     -1007.0793
   8   1.0000     -37.009486     -1007.0793
   9   1.0000     -37.008118     -1007.0421
  10   1.0000      -8.600108      -234.0208
  11   1.0000      -6.417849      -174.6386
  12   1.0000      -6.411016      -174.4526
  13   1.0000      -6.411016      -174.4526
  14   1.0000      -4.807588      -130.8211
  15   1.0000      -3.195114       -86.9435
  16   1.0000      -3.195114       -86.9435
  17   1.0000      -3.191552       -86.8465
  18   1.0000      -2.542588       -69.1873
  19   1.0000      -2.540694       -69.1358
  20   1.0000      -2.540694       -69.1358
  21   1.0000      -2.535507       -68.9947
  22   1.0000      -2.535468       -68.9936
  23   1.0000      -0.728034       -19.8108
  24   1.0000      -0.491531       -13.3752
  25   1.0000      -0.490337       -13.3428
  26   1.0000      -0.490329       -13.3425
  27   1.0000      -0.489664       -13.3244
  28   1.0000      -0.489664       -13.3244
  29   1.0000      -0.347622        -9.4593
  30   1.0000      -0.276853        -7.5336
  31   1.0000      -0.276853        -7.5336
  32   1.0000      -0.221684        -6.0323
  33   0.0000      -0.051517        -1.4018
  34   0.0000      -0.051517        -1.4018
  35   0.0000      -0.003617        -0.0984
  36   0.0000       0.001153         0.0314
  37   0.0000       0.026600         0.7238

                 SPIN DOWN ORBITALS
  NO   OCC          E(Eh)            E(eV)
   0   1.0000    -482.543845    -13130.6856
   1   1.0000    -347.034957     -9443.3013
   2   1.0000     -62.257432     -1694.1109
   3   1.0000     -56.042025     -1524.9810
   4   1.0000     -56.040624     -1524.9429
   5   1.0000     -56.040624     -1524.9429
   6   1.0000     -42.059869     -1144.5072
   7   1.0000     -37.009744     -1007.0863
   8   1.0000     -37.009744     -1007.0863
   9   1.0000     -37.007311     -1007.0201
  10   1.0000      -8.599322      -233.9995
  11   1.0000      -6.415798      -174.5827
  12   1.0000      -6.410669      -174.4432
  13   1.0000      -6.410669      -174.4432
  14   1.0000      -4.806611      -130.7945
  15   1.0000      -3.194123       -86.9165
  16   1.0000      -3.194123       -86.9165
  17   1.0000      -3.191100       -86.8342
  18   1.0000      -2.540829       -69.1395
  19   1.0000      -2.539327       -69.0986
  20   1.0000      -2.539327       -69.0986
  21   1.0000      -2.535285       -68.9886
  22   1.0000      -2.535246       -68.9876
  23   1.0000      -0.720055       -19.5937
  24   1.0000      -0.486361       -13.2345
  25   1.0000      -0.486352       -13.2343
  26   1.0000      -0.485790       -13.2190
  27   1.0000      -0.485732       -13.2174
  28   1.0000      -0.485732       -13.2174
  29   1.0000      -0.330006        -8.9799
  30   1.0000      -0.274209        -7.4616
  31   1.0000      -0.274209        -7.4616
  32   0.0000      -0.150723        -4.1014
  33   0.0000      -0.027337        -0.7439
  34   0.0000      -0.027337        -0.7439
  35   0.0000       0.005660         0.1540
  36   0.0000       0.014340         0.3902

MULLIKEN ATOMIC CHARGES AND SPIN POPULATIONS
--------------------------------------------
   0 Zn:    0.450905    0.832796
   1 Br:   -0.450905    0.167204
Sum of atomic charges         :   -0.0000000

LOEWDIN ATOMIC CHARGES AND SPIN POPULATIONS
-------------------------------------------
   0 Zn:    0.164395    0.772222
   1 Br:   -0.164395    0.227778

  Mayer bond orders larger than 0.100000
B(  0-Zn,  1-Br) :   0.8514

Dispersion correction           -0.001632539
FINAL SINGLE POINT ENERGY     -4353.573054167554

DIPOLE MOMENT
-------------
                                X             Y             Z
Electronic contribution:      0.00000       0.00000       2.23789
Nuclear contribution   :      0.00000       0.00000      -3.26305
                        -----------------------------------------
Total Dipole Moment    :      0.00000       0.00000      -1.02516
                        -----------------------------------------
Magnitude (a.u.)       :      1.02516
Magnitude (Debye)      :      2.60574

Rotational constants in cm-1:     0.000000     0.088026     0.088026
Rotational constants in MHz :     0.000000  2638.947188  2638.947188

                             ****ORCA TERMINATED NORMALLY****
TOTAL RUN TIME: 0 days 0 hours 1 minutes 58 seconds 759 msec
