                         Program Version 4.2.0 -  RELEASE  -
|  1> #
|  2> # 61_Sc tpssh/aug-cc-pvtz
|  3> #
|  4> ! tpssh d3bj aug-cc-pvtz def2/jk grid4 nofinalgrid
|  5>
|  6> *xyz 0 2
|  7> Sc 0.0 0.0 0.0
|  8> *
|  9>
| 10> %pal
| 11> nprocs 24
| 12> end
| 13>
| 14>
| 15>                          ****END OF INPUT****

CARTESIAN COORDINATES (ANGSTROEM)
---------------------------------
  Sc     0.000000    0.000000    0.000000

 Total Charge           Charge          ....    0
 Multiplicity           Mult            ....    2
 Number of Electrons    NEL             ....   21
 Basis Dimension        Dim             ....   93

ORBITAL ENERGIES
----------------
                 SPIN UP ORBITALS
  NO   OCC          E(Eh)            E(eV)
   0   1.0000    -161.519139     -4395.1592
   1   1.0000     -17.499752      -476.1925
   2   1.0000     -14.408400      -392.0725
   3   1.0000     -14.401136      -391.8748
   4   1.0000     -14.400997      -391.8710
   5   1.0000      -2.074192       -56.4416
   6   1.0000      -1.274919       -34.6923
   7   1.0000      -1.271293       -34.5936
   8   1.0000      -1.271217       -34.5916
   9   1.0000      -0.160669        -4.3720
  10   1.0000      -0.158008        -4.2996
  11   0.0000      -0.083132        -2.2621
  12   0.0000      -0.078232        -2.1288
  13   0.0000      -0.077746        -2.1156
  14   0.0000      -0.061074        -1.6619
  15   0.0000      -0.048572        -1.3217

                 SPIN DOWN ORBITALS
  NO   OCC          E(Eh)            E(eV)
   0   1.0000    -161.519146     -4395.1594
   1   1.0000     -17.492159      -475.9859
   2   1.0000     -14.407168      -392.0390
   3   1.0000     -14.392310      -391.6347
   4   1.0000     -14.392053      -391.6277
   5   1.0000      -2.047025       -55.7024
   6   1.0000      -1.268488       -34.5173
   7   1.0000      -1.231001       -33.4972
   8   1.0000      -1.230286       -33.4778
   9   1.0000      -0.152452        -4.1484
  10   0.0000      -0.074926        -2.0388
  11   0.0000      -0.068449        -1.8626
  12   0.0000      -0.068310        -1.8588
  13   0.0000      -0.053741        -1.4624
  14   0.0000      -0.051973        -1.4143

MULLIKEN ATOMIC CHARGES AND SPIN POPULATIONS
--------------------------------------------
   0 Sc:   -0.000000    1.000000
Sum of atomic charges         :   -0.0000000

LOEWDIN ATOMIC CHARGES AND SPIN POPULATIONS
-------------------------------------------
   0 Sc:   -0.000000    1.000000

Dispersion correction            0.000000000
FINAL SINGLE POINT ENERGY      -760.635120782630

DIPOLE MOMENT
-------------
                                X             Y             Z
Electronic contribution:      0.00000       0.00000      -0.00000
Nuclear contribution   :      0.00000       0.00000       0.00000
                        -----------------------------------------
Total Dipole Moment    :      0.00000       0.00000      -0.00000
                        -----------------------------------------
Magnitude (a.u.)       :      0.00000
Magnitude (Debye)      :      0.00000

Rotational constants in cm-1:     0.000000     0.000000     0.000000
Rotational constants in MHz :     0.000000     0.000000     0.000000

                             ****ORCA TERMINATED NORMALLY****
TOTAL RUN TIME: 0 days 0 hours 2 minutes 43 seconds 523 msec
