                         Program Version 4.2.0 -  RELEASE  -
|  1> #
|  2> # 62_Ti tpssh/aug-cc-pvtz
|  3> #
|  4> ! tpssh d3bj aug-cc-pvtz def2/jk grid4 nofinalgrid
|  5>
|  6> *xyz 0 3
|  7> Ti 0.0 0.0 0.0
|  8> *
|  9>
| 10> %pal
| 11> nprocs 24
| 12> end
| 13>
| 14>
| 15>                          ****END OF INPUT****

CARTESIAN COORDINATES (ANGSTROEM)
---------------------------------
  Ti     0.000000    0.000000    0.000000

 Total Charge           Charge          ....    0
 Multiplicity           Mult            ....    3
 Number of Electrons    NEL             ....   22
 Basis Dimension        Dim             ....   93

ORBITAL ENERGIES
----------------
                 SPIN UP ORBITALS
  NO   OCC          E(Eh)            E(eV)
   0   1.0000    -178.672587     -4861.9283
   1   1.0000     -19.762905      -537.7760
   2   1.0000     -16.454844      -447.7591
   3   1.0000     -16.454666      -447.7542
   4   1.0000     -16.454657      -447.7540
   5   1.0000      -2.359869       -64.2153
   6   1.0000      -1.477153       -40.1954
   7   1.0000      -1.477124       -40.1946
   8   1.0000      -1.476814       -40.1861
   9   1.0000      -0.210817        -5.7366
  10   1.0000      -0.210796        -5.7360
  11   1.0000      -0.173702        -4.7267
  12   0.0000      -0.102859        -2.7989
  13   0.0000      -0.102841        -2.7985
  14   0.0000      -0.100954        -2.7471
  15   0.0000      -0.049477        -1.3463
  16   0.0000      -0.049457        -1.3458

                 SPIN DOWN ORBITALS
  NO   OCC          E(Eh)            E(eV)
   0   1.0000    -178.672454     -4861.9247
   1   1.0000     -19.742700      -537.2262
   2   1.0000     -16.440007      -447.3553
   3   1.0000     -16.436825      -447.2687
   4   1.0000     -16.436813      -447.2684
   5   1.0000      -2.294577       -62.4386
   6   1.0000      -1.411628       -38.4124
   7   1.0000      -1.406851       -38.2824
   8   1.0000      -1.406833       -38.2819
   9   1.0000      -0.155687        -4.2365
  10   0.0000      -0.087401        -2.3783
  11   0.0000      -0.079556        -2.1648
  12   0.0000      -0.079536        -2.1643
  13   0.0000      -0.054254        -1.4763
  14   0.0000      -0.054245        -1.4761

MULLIKEN ATOMIC CHARGES AND SPIN POPULATIONS
--------------------------------------------
   0 Ti:   -0.000000    2.000000
Sum of atomic charges         :   -0.0000000

LOEWDIN ATOMIC CHARGES AND SPIN POPULATIONS
-------------------------------------------
   0 Ti:   -0.000000    2.000000

Dispersion correction            0.000000000
FINAL SINGLE POINT ENERGY      -849.373896884704

DIPOLE MOMENT
-------------
                                X             Y             Z
Electronic contribution:     -0.00000      -0.00000       0.00000
Nuclear contribution   :      0.00000       0.00000       0.00000
                        -----------------------------------------
Total Dipole Moment    :     -0.00000      -0.00000       0.00000
                        -----------------------------------------
Magnitude (a.u.)       :      0.00000
Magnitude (Debye)      :      0.00000

Rotational constants in cm-1:     0.000000     0.000000     0.000000
Rotational constants in MHz :     0.000000     0.000000     0.000000

                             ****ORCA TERMINATED NORMALLY****
TOTAL RUN TIME: 0 days 0 hours 4 minutes 59 seconds 51 msec
