                         Program Version 4.2.0 -  RELEASE  -
|  1> #
|  2> # 63_V tpssh/aug-cc-pvtz
|  3> #
|  4> ! tpssh d3bj aug-cc-pvtz def2/jk grid4 nofinalgrid
|  5>
|  6> *xyz 0 4
|  7> V 0.0 0.0 0.0
|  8> *
|  9>
| 10> %pal
| 11> nprocs 24
| 12> end
| 13>
| 14>
| 15>                          ****END OF INPUT****

CARTESIAN COORDINATES (ANGSTROEM)
---------------------------------
  V      0.000000    0.000000    0.000000

 Total Charge           Charge          ....    0
 Multiplicity           Mult            ....    4
 Number of Electrons    NEL             ....   23
 Basis Dimension        Dim             ....   93

ORBITAL ENERGIES
----------------
                 SPIN UP ORBITALS
  NO   OCC          E(Eh)            E(eV)
   0   1.0000    -196.664848     -5351.5226
   1   1.0000     -22.115854      -601.8030
   2   1.0000     -18.594959      -505.9946
   3   1.0000     -18.594825      -505.9909
   4   1.0000     -18.594487      -505.9817
   5   1.0000      -2.633814       -71.6697
   6   1.0000      -1.672937       -45.5229
   7   1.0000      -1.672844       -45.5204
   8   1.0000      -1.664068       -45.2816
   9   1.0000      -0.235706        -6.4139
  10   1.0000      -0.231042        -6.2870
  11   1.0000      -0.230757        -6.2792
  12   1.0000      -0.182037        -4.9535
  13   0.0000      -0.127660        -3.4738
  14   0.0000      -0.121952        -3.3185
  15   0.0000      -0.047672        -1.2972
  16   0.0000      -0.037840        -1.0297
  17   0.0000      -0.037591        -1.0229

                 SPIN DOWN ORBITALS
  NO   OCC          E(Eh)            E(eV)
   0   1.0000    -196.664702     -5351.5186
   1   1.0000     -22.078487      -600.7862
   2   1.0000     -18.564612      -505.1688
   3   1.0000     -18.564405      -505.1632
   4   1.0000     -18.561474      -505.0834
   5   1.0000      -2.520528       -68.5870
   6   1.0000      -1.553132       -42.2629
   7   1.0000      -1.552663       -42.2501
   8   1.0000      -1.546684       -42.0874
   9   1.0000      -0.157101        -4.2749
  10   0.0000      -0.088288        -2.4024
  11   0.0000      -0.071041        -1.9331
  12   0.0000      -0.059849        -1.6286
  13   0.0000      -0.048398        -1.3170
  14   0.0000      -0.048279        -1.3137

MULLIKEN ATOMIC CHARGES AND SPIN POPULATIONS
--------------------------------------------
   0 V :   -0.000000    3.000000
Sum of atomic charges         :   -0.0000000

LOEWDIN ATOMIC CHARGES AND SPIN POPULATIONS
-------------------------------------------
   0 V :   -0.000000    3.000000

Dispersion correction            0.000000000
FINAL SINGLE POINT ENERGY      -943.918774930763

DIPOLE MOMENT
-------------
                                X             Y             Z
Electronic contribution:      0.00000       0.00000       0.00000
Nuclear contribution   :      0.00000       0.00000       0.00000
                        -----------------------------------------
Total Dipole Moment    :      0.00000       0.00000       0.00000
                        -----------------------------------------
Magnitude (a.u.)       :      0.00000
Magnitude (Debye)      :      0.00000

Rotational constants in cm-1:     0.000000     0.000000     0.000000
Rotational constants in MHz :     0.000000     0.000000     0.000000

                             ****ORCA TERMINATED NORMALLY****
TOTAL RUN TIME: 0 days 0 hours 5 minutes 54 seconds 30 msec
