                         Program Version 4.2.0 -  RELEASE  -
|  1> #
|  2> # 64_Cr tpssh/aug-cc-pvtz
|  3> #
|  4> ! tpssh d3bj aug-cc-pvtz def2/jk grid4 nofinalgrid
|  5>
|  6> *xyz 0 7
|  7> Cr 0.0 0.0 0.0
|  8> *
|  9>
| 10> %pal
| 11> nprocs 24
| 12> end
| 13>
| 14>
| 15>                          ****END OF INPUT****

CARTESIAN COORDINATES (ANGSTROEM)
---------------------------------
  Cr     0.000000    0.000000    0.000000

 Total Charge           Charge          ....    0
 Multiplicity           Mult            ....    7
 Number of Electrons    NEL             ....   24
 Basis Dimension        Dim             ....   93

ORBITAL ENERGIES
----------------
                 SPIN UP ORBITALS
  NO   OCC          E(Eh)            E(eV)
   0   1.0000    -215.408998     -5861.5768
   1   1.0000     -24.457872      -665.5325
   2   1.0000     -20.724064      -563.9304
   3   1.0000     -20.724064      -563.9304
   4   1.0000     -20.724064      -563.9304
   5   1.0000      -2.804422       -76.3122
   6   1.0000      -1.762128       -47.9500
   7   1.0000      -1.762128       -47.9500
   8   1.0000      -1.762128       -47.9500
   9   1.0000      -0.165881        -4.5139
  10   1.0000      -0.161276        -4.3885
  11   1.0000      -0.161276        -4.3885
  12   1.0000      -0.161276        -4.3885
  13   1.0000      -0.161276        -4.3885
  14   1.0000      -0.161276        -4.3885
  15   0.0000      -0.032749        -0.8911
  16   0.0000      -0.032749        -0.8911
  17   0.0000      -0.032749        -0.8911
  18   0.0000       0.004683         0.1274
  19   0.0000       0.027286         0.7425

                 SPIN DOWN ORBITALS
  NO   OCC          E(Eh)            E(eV)
   0   1.0000    -215.407717     -5861.5420
   1   1.0000     -24.397387      -663.8867
   2   1.0000     -20.673493      -562.5543
   3   1.0000     -20.673493      -562.5543
   4   1.0000     -20.673493      -562.5543
   5   1.0000      -2.621003       -71.3211
   6   1.0000      -1.569793       -42.7163
   7   1.0000      -1.569793       -42.7163
   8   1.0000      -1.569793       -42.7163
   9   0.0000      -0.043415        -1.1814
  10   0.0000       0.022773         0.6197
  11   0.0000       0.022774         0.6197
  12   0.0000       0.022774         0.6197
  13   0.0000       0.031887         0.8677

MULLIKEN ATOMIC CHARGES AND SPIN POPULATIONS
--------------------------------------------
   0 Cr:   -0.000000    6.000000
Sum of atomic charges         :   -0.0000000

LOEWDIN ATOMIC CHARGES AND SPIN POPULATIONS
-------------------------------------------
   0 Cr:   -0.000000    6.000000

Dispersion correction            0.000000000
FINAL SINGLE POINT ENERGY     -1044.469606964374

DIPOLE MOMENT
-------------
                                X             Y             Z
Electronic contribution:      0.00000      -0.00000      -0.00000
Nuclear contribution   :      0.00000       0.00000       0.00000
                        -----------------------------------------
Total Dipole Moment    :      0.00000      -0.00000      -0.00000
                        -----------------------------------------
Magnitude (a.u.)       :      0.00000
Magnitude (Debye)      :      0.00000

Rotational constants in cm-1:     0.000000     0.000000     0.000000
Rotational constants in MHz :     0.000000     0.000000     0.000000

                             ****ORCA TERMINATED NORMALLY****
TOTAL RUN TIME: 0 days 0 hours 1 minutes 1 seconds 773 msec
