                         Program Version 4.2.0 -  RELEASE  -
|  1> #
|  2> # 65_Mn tpssh/aug-cc-pvtz
|  3> #
|  4> ! tpssh d3bj aug-cc-pvtz def2/jk grid4 nofinalgrid
|  5>
|  6> *xyz 0 6
|  7> Mn 0.0 0.0 0.0
|  8> *
|  9>
| 10> %pal
| 11> nprocs 24
| 12> end
| 13>
| 14>
| 15>                          ****END OF INPUT****

CARTESIAN COORDINATES (ANGSTROEM)
---------------------------------
  Mn     0.000000    0.000000    0.000000

 Total Charge           Charge          ....    0
 Multiplicity           Mult            ....    6
 Number of Electrons    NEL             ....   25
 Basis Dimension        Dim             ....   93

ORBITAL ENERGIES
----------------
                 SPIN UP ORBITALS
  NO   OCC          E(Eh)            E(eV)
   0   1.0000    -235.302784     -6402.9143
   1   1.0000     -27.248617      -741.4726
   2   1.0000     -23.295597      -633.9054
   3   1.0000     -23.295596      -633.9054
   4   1.0000     -23.295595      -633.9054
   5   1.0000      -3.276377       -89.1548
   6   1.0000      -2.140201       -58.2378
   7   1.0000      -2.140201       -58.2378
   8   1.0000      -2.140201       -58.2378
   9   1.0000      -0.343692        -9.3523
  10   1.0000      -0.343691        -9.3523
  11   1.0000      -0.343691        -9.3523
  12   1.0000      -0.343689        -9.3522
  13   1.0000      -0.343689        -9.3522
  14   1.0000      -0.210190        -5.7195
  15   0.0000      -0.048538        -1.3208
  16   0.0000      -0.048532        -1.3206
  17   0.0000      -0.048530        -1.3206
  18   0.0000       0.005870         0.1597
  19   0.0000       0.029206         0.7947

                 SPIN DOWN ORBITALS
  NO   OCC          E(Eh)            E(eV)
   0   1.0000    -235.301677     -6402.8842
   1   1.0000     -27.169590      -739.3221
   2   1.0000     -23.229567      -632.1087
   3   1.0000     -23.229567      -632.1086
   4   1.0000     -23.229565      -632.1086
   5   1.0000      -3.062401       -83.3322
   6   1.0000      -1.917441       -52.1762
   7   1.0000      -1.917437       -52.1761
   8   1.0000      -1.917436       -52.1761
   9   1.0000      -0.170431        -4.6377
  10   0.0000      -0.096013        -2.6127
  11   0.0000      -0.096013        -2.6126
  12   0.0000      -0.096011        -2.6126
  13   0.0000      -0.096010        -2.6126
  14   0.0000      -0.096010        -2.6126

MULLIKEN ATOMIC CHARGES AND SPIN POPULATIONS
--------------------------------------------
   0 Mn:   -0.000000    5.000000
Sum of atomic charges         :   -0.0000000

LOEWDIN ATOMIC CHARGES AND SPIN POPULATIONS
-------------------------------------------
   0 Mn:   -0.000000    5.000000

Dispersion correction            0.000000000
FINAL SINGLE POINT ENERGY     -1151.004090845132

DIPOLE MOMENT
-------------
                                X             Y             Z
Electronic contribution:      0.00000      -0.00000      -0.00000
Nuclear contribution   :      0.00000       0.00000       0.00000
                        -----------------------------------------
Total Dipole Moment    :      0.00000      -0.00000      -0.00000
                        -----------------------------------------
Magnitude (a.u.)       :      0.00000
Magnitude (Debye)      :      0.00000

Rotational constants in cm-1:     0.000000     0.000000     0.000000
Rotational constants in MHz :     0.000000     0.000000     0.000000

                             ****ORCA TERMINATED NORMALLY****
TOTAL RUN TIME: 0 days 0 hours 6 minutes 3 seconds 408 msec
