                         Program Version 4.2.0 -  RELEASE  -
|  1> #
|  2> # 66_Fe tpssh/aug-cc-pvtz
|  3> #
|  4> ! tpssh d3bj aug-cc-pvtz def2/jk grid4 nofinalgrid
|  5>
|  6> *xyz 0 5
|  7> Fe 0.0 0.0 0.0
|  8> *
|  9>
| 10> %pal
| 11> nprocs 24
| 12> end
| 13>
| 14>
| 15>                          ****END OF INPUT****

CARTESIAN COORDINATES (ANGSTROEM)
---------------------------------
  Fe     0.000000    0.000000    0.000000

 Total Charge           Charge          ....    0
 Multiplicity           Mult            ....    5
 Number of Electrons    NEL             ....   26
 Basis Dimension        Dim             ....   93

ORBITAL ENERGIES
----------------
                 SPIN UP ORBITALS
  NO   OCC          E(Eh)            E(eV)
   0   1.0000    -255.748860     -6959.2803
   1   1.0000     -29.774516      -810.2058
   2   1.0000     -25.608408      -696.8402
   3   1.0000     -25.608394      -696.8398
   4   1.0000     -25.608299      -696.8373
   5   1.0000      -3.361275       -91.4650
   6   1.0000      -2.139223       -58.2112
   7   1.0000      -2.139189       -58.2103
   8   1.0000      -2.138986       -58.2048
   9   1.0000      -0.215227        -5.8566
  10   1.0000      -0.215222        -5.8565
  11   1.0000      -0.215155        -5.8547
  12   1.0000      -0.176782        -4.8105
  13   1.0000      -0.176758        -4.8098
  14   1.0000      -0.175430        -4.7737
  15   0.0000      -0.029217        -0.7950
  16   0.0000      -0.029209        -0.7948
  17   0.0000      -0.029193        -0.7944
  18   0.0000       0.006276         0.1708
  19   0.0000       0.032767         0.8916

                 SPIN DOWN ORBITALS
  NO   OCC          E(Eh)            E(eV)
   0   1.0000    -255.747201     -6959.2351
   1   1.0000     -29.725817      -808.8806
   2   1.0000     -25.567633      -695.7307
   3   1.0000     -25.567631      -695.7306
   4   1.0000     -25.567588      -695.7295
   5   1.0000      -3.232022       -87.9478
   6   1.0000      -2.004076       -54.5337
   7   1.0000      -2.004071       -54.5335
   8   1.0000      -2.004067       -54.5334
   9   1.0000      -0.127269        -3.4632
  10   1.0000      -0.127236        -3.4623
  11   0.0000      -0.097233        -2.6458
  12   0.0000       0.000004         0.0001
  13   0.0000       0.000045         0.0012
  14   0.0000       0.000124         0.0034
  15   0.0000       0.004997         0.1360

MULLIKEN ATOMIC CHARGES AND SPIN POPULATIONS
--------------------------------------------
   0 Fe:    0.000000    4.000000
Sum of atomic charges         :    0.0000000

LOEWDIN ATOMIC CHARGES AND SPIN POPULATIONS
-------------------------------------------
   0 Fe:    0.000000    4.000000

Dispersion correction            0.000000000
FINAL SINGLE POINT ENERGY     -1263.699936945337

DIPOLE MOMENT
-------------
                                X             Y             Z
Electronic contribution:      0.00000       0.00000       0.00000
Nuclear contribution   :      0.00000       0.00000       0.00000
                        -----------------------------------------
Total Dipole Moment    :      0.00000       0.00000       0.00000
                        -----------------------------------------
Magnitude (a.u.)       :      0.00000
Magnitude (Debye)      :      0.00000

Rotational constants in cm-1:     0.000000     0.000000     0.000000
Rotational constants in MHz :     0.000000     0.000000     0.000000

                             ****ORCA TERMINATED NORMALLY****
TOTAL RUN TIME: 0 days 0 hours 2 minutes 8 seconds 126 msec
