                         Program Version 4.2.0 -  RELEASE  -
|  1> #
|  2> # 67_Co tpssh/aug-cc-pvtz
|  3> #
|  4> ! tpssh d3bj aug-cc-pvtz def2/jk grid4 nofinalgrid
|  5>
|  6> *xyz 0 4
|  7> Co 0.0 0.0 0.0
|  8> *
|  9>
| 10> %pal
| 11> nprocs 24
| 12> end
| 13>
| 14>
| 15>                          ****END OF INPUT****

CARTESIAN COORDINATES (ANGSTROEM)
---------------------------------
  Co     0.000000    0.000000    0.000000

 Total Charge           Charge          ....    0
 Multiplicity           Mult            ....    4
 Number of Electrons    NEL             ....   27
 Basis Dimension        Dim             ....   93

ORBITAL ENERGIES
----------------
                 SPIN UP ORBITALS
  NO   OCC          E(Eh)            E(eV)
   0   1.0000    -277.212531     -7543.3365
   1   1.0000     -32.600396      -887.1019
   2   1.0000     -28.215972      -767.7956
   3   1.0000     -28.215952      -767.7951
   4   1.0000     -28.215937      -767.7947
   5   1.0000      -3.641236       -99.0831
   6   1.0000      -2.326006       -63.2938
   7   1.0000      -2.326001       -63.2937
   8   1.0000      -2.325988       -63.2933
   9   1.0000      -0.235600        -6.4110
  10   1.0000      -0.235599        -6.4110
  11   1.0000      -0.194301        -5.2872
  12   1.0000      -0.194268        -5.2863
  13   1.0000      -0.194223        -5.2851
  14   1.0000      -0.178616        -4.8604
  15   0.0000      -0.027298        -0.7428
  16   0.0000      -0.027217        -0.7406
  17   0.0000      -0.027138        -0.7385
  18   0.0000       0.007053         0.1919
  19   0.0000       0.036996         1.0067

                 SPIN DOWN ORBITALS
  NO   OCC          E(Eh)            E(eV)
   0   1.0000    -277.210928     -7543.2929
   1   1.0000     -32.565481      -886.1518
   2   1.0000     -28.186618      -766.9969
   3   1.0000     -28.186571      -766.9956
   4   1.0000     -28.186526      -766.9944
   5   1.0000      -3.549792       -96.5948
   6   1.0000      -2.230886       -60.7055
   7   1.0000      -2.230803       -60.7032
   8   1.0000      -2.230723       -60.7011
   9   1.0000      -0.154349        -4.2001
  10   1.0000      -0.154324        -4.1994
  11   1.0000      -0.154306        -4.1989
  12   0.0000      -0.104630        -2.8471
  13   0.0000      -0.017675        -0.4810
  14   0.0000      -0.017639        -0.4800
  15   0.0000       0.000231         0.0063
  16   0.0000       0.000339         0.0092

MULLIKEN ATOMIC CHARGES AND SPIN POPULATIONS
--------------------------------------------
   0 Co:   -0.000000    3.000000
Sum of atomic charges         :   -0.0000000

LOEWDIN ATOMIC CHARGES AND SPIN POPULATIONS
-------------------------------------------
   0 Co:   -0.000000    3.000000

Dispersion correction            0.000000000
FINAL SINGLE POINT ENERGY     -1382.770130722305

DIPOLE MOMENT
-------------
                                X             Y             Z
Electronic contribution:      0.00000       0.00000       0.00000
Nuclear contribution   :      0.00000       0.00000       0.00000
                        -----------------------------------------
Total Dipole Moment    :      0.00000       0.00000       0.00000
                        -----------------------------------------
Magnitude (a.u.)       :      0.00000
Magnitude (Debye)      :      0.00000

Rotational constants in cm-1:     0.000000     0.000000     0.000000
Rotational constants in MHz :     0.000000     0.000000     0.000000

                             ****ORCA TERMINATED NORMALLY****
TOTAL RUN TIME: 0 days 0 hours 2 minutes 24 seconds 936 msec
