                         Program Version 4.2.0 -  RELEASE  -
|  1> #
|  2> # 68_Ni tpssh/aug-cc-pvtz
|  3> #
|  4> ! tpssh d3bj aug-cc-pvtz def2/jk grid4 nofinalgrid
|  5>
|  6> *xyz 0 3
|  7> Ni 0.0 0.0 0.0
|  8> *
|  9>
| 10> %pal
| 11> nprocs 24
| 12> end
| 13>
| 14>
| 15>                          ****END OF INPUT****

CARTESIAN COORDINATES (ANGSTROEM)
---------------------------------
  Ni     0.000000    0.000000    0.000000

 Total Charge           Charge          ....    0
 Multiplicity           Mult            ....    3
 Number of Electrons    NEL             ....   28
 Basis Dimension        Dim             ....   93

ORBITAL ENERGIES
----------------
                 SPIN UP ORBITALS
  NO   OCC          E(Eh)            E(eV)
   0   1.0000    -299.536668     -8150.8071
   1   1.0000     -35.541810      -967.1418
   2   1.0000     -30.961585      -842.5076
   3   1.0000     -30.928568      -841.6091
   4   1.0000     -30.926271      -841.5466
   5   1.0000      -3.928166      -106.8908
   6   1.0000      -2.562523       -69.7298
   7   1.0000      -2.496663       -67.9377
   8   1.0000      -2.491658       -67.8015
   9   1.0000      -0.270565        -7.3624
  10   1.0000      -0.219415        -5.9706
  11   1.0000      -0.217099        -5.9076
  12   1.0000      -0.196067        -5.3353
  13   1.0000      -0.195629        -5.3233
  14   1.0000      -0.182009        -4.9527
  15   0.0000      -0.028868        -0.7855
  16   0.0000      -0.024642        -0.6705
  17   0.0000      -0.023052        -0.6273
  18   0.0000       0.007655         0.2083
  19   0.0000       0.035641         0.9698

                 SPIN DOWN ORBITALS
  NO   OCC          E(Eh)            E(eV)
   0   1.0000    -299.535285     -8150.7695
   1   1.0000     -35.522700      -966.6218
   2   1.0000     -30.934198      -841.7623
   3   1.0000     -30.917408      -841.3054
   4   1.0000     -30.916863      -841.2906
   5   1.0000      -3.879891      -105.5772
   6   1.0000      -2.475034       -67.3491
   7   1.0000      -2.464885       -67.0729
   8   1.0000      -2.462322       -67.0032
   9   1.0000      -0.201704        -5.4886
  10   1.0000      -0.198242        -5.3944
  11   1.0000      -0.160532        -4.3683
  12   1.0000      -0.159804        -4.3485
  13   0.0000      -0.111970        -3.0469
  14   0.0000      -0.068106        -1.8533
  15   0.0000      -0.000329        -0.0090
  16   0.0000       0.000416         0.0113
  17   0.0000       0.000827         0.0225

MULLIKEN ATOMIC CHARGES AND SPIN POPULATIONS
--------------------------------------------
   0 Ni:    0.000000    2.000000
Sum of atomic charges         :    0.0000000

LOEWDIN ATOMIC CHARGES AND SPIN POPULATIONS
-------------------------------------------
   0 Ni:   -0.000000    2.000000

Dispersion correction            0.000000000
FINAL SINGLE POINT ENERGY     -1508.321823810988

DIPOLE MOMENT
-------------
                                X             Y             Z
Electronic contribution:      0.00000       0.00000      -0.00000
Nuclear contribution   :      0.00000       0.00000       0.00000
                        -----------------------------------------
Total Dipole Moment    :      0.00000       0.00000      -0.00000
                        -----------------------------------------
Magnitude (a.u.)       :      0.00000
Magnitude (Debye)      :      0.00000

Rotational constants in cm-1:     0.000000     0.000000     0.000000
Rotational constants in MHz :     0.000000     0.000000     0.000000

                             ****ORCA TERMINATED NORMALLY****
TOTAL RUN TIME: 0 days 0 hours 1 minutes 53 seconds 498 msec
