                         Program Version 4.2.0 -  RELEASE  -
|  1> #
|  2> # 69_Cu tpssh/aug-cc-pvtz
|  3> #
|  4> ! tpssh d3bj aug-cc-pvtz def2/jk grid4 nofinalgrid
|  5>
|  6> *xyz 0 2
|  7> Cu 0.0 0.0 0.0
|  8> *
|  9>
| 10> %pal
| 11> nprocs 24
| 12> end
| 13>
| 14>
| 15>                          ****END OF INPUT****

CARTESIAN COORDINATES (ANGSTROEM)
---------------------------------
  Cu     0.000000    0.000000    0.000000

 Total Charge           Charge          ....    0
 Multiplicity           Mult            ....    2
 Number of Electrons    NEL             ....   29
 Basis Dimension        Dim             ....   93

ORBITAL ENERGIES
----------------
                 SPIN UP ORBITALS
  NO   OCC          E(Eh)            E(eV)
   0   1.0000    -322.716640     -8781.5662
   1   1.0000     -38.587695     -1050.0246
   2   1.0000     -33.763673      -918.7563
   3   1.0000     -33.763673      -918.7563
   4   1.0000     -33.763673      -918.7563
   5   1.0000      -4.210032      -114.5608
   6   1.0000      -2.701354       -73.5076
   7   1.0000      -2.701354       -73.5076
   8   1.0000      -2.701354       -73.5076
   9   1.0000      -0.218281        -5.9397
  10   1.0000      -0.218281        -5.9397
  11   1.0000      -0.218281        -5.9397
  12   1.0000      -0.218281        -5.9397
  13   1.0000      -0.218281        -5.9397
  14   1.0000      -0.184289        -5.0147
  15   0.0000      -0.023640        -0.6433
  16   0.0000      -0.023640        -0.6433
  17   0.0000      -0.023640        -0.6433
  18   0.0000       0.008398         0.2285
  19   0.0000       0.039707         1.0805

                 SPIN DOWN ORBITALS
  NO   OCC          E(Eh)            E(eV)
   0   1.0000    -322.715518     -8781.5357
   1   1.0000     -38.588960     -1050.0590
   2   1.0000     -33.764808      -918.7871
   3   1.0000     -33.764808      -918.7871
   4   1.0000     -33.764808      -918.7871
   5   1.0000      -4.211858      -114.6105
   6   1.0000      -2.703466       -73.5650
   7   1.0000      -2.703466       -73.5650
   8   1.0000      -2.703466       -73.5650
   9   1.0000      -0.213412        -5.8072
  10   1.0000      -0.213412        -5.8072
  11   1.0000      -0.213412        -5.8072
  12   1.0000      -0.213412        -5.8072
  13   1.0000      -0.213412        -5.8072
  14   0.0000      -0.117567        -3.1992
  15   0.0000       0.001809         0.0492
  16   0.0000       0.001809         0.0492
  17   0.0000       0.001809         0.0492
  18   0.0000       0.024898         0.6775

MULLIKEN ATOMIC CHARGES AND SPIN POPULATIONS
--------------------------------------------
   0 Cu:   -0.000000    1.000000
Sum of atomic charges         :   -0.0000000

LOEWDIN ATOMIC CHARGES AND SPIN POPULATIONS
-------------------------------------------
   0 Cu:    0.000000    1.000000

Dispersion correction            0.000000000
FINAL SINGLE POINT ENERGY     -1640.533809414605

DIPOLE MOMENT
-------------
                                X             Y             Z
Electronic contribution:     -0.00000       0.00000      -0.00000
Nuclear contribution   :      0.00000       0.00000       0.00000
                        -----------------------------------------
Total Dipole Moment    :     -0.00000       0.00000      -0.00000
                        -----------------------------------------
Magnitude (a.u.)       :      0.00000
Magnitude (Debye)      :      0.00000

Rotational constants in cm-1:     0.000000     0.000000     0.000000
Rotational constants in MHz :     0.000000     0.000000     0.000000

                             ****ORCA TERMINATED NORMALLY****
TOTAL RUN TIME: 0 days 0 hours 0 minutes 51 seconds 238 msec
