                         Program Version 4.2.0 -  RELEASE  -
|  1> #
|  2> # 70_Zn tpssh/aug-cc-pvtz
|  3> #
|  4> ! tpssh d3bj aug-cc-pvtz def2/jk grid4 nofinalgrid
|  5>
|  6> *xyz 0 1
|  7> Zn 0.0 0.0 0.0
|  8> *
|  9>
| 10> %pal
| 11> nprocs 24
| 12> end
| 13>
| 14>
| 15>                          ****END OF INPUT****

CARTESIAN COORDINATES (ANGSTROEM)
---------------------------------
  Zn     0.000000    0.000000    0.000000

 Total Charge           Charge          ....    0
 Multiplicity           Mult            ....    1
 Number of Electrons    NEL             ....   30
 Basis Dimension        Dim             ....   93

ORBITAL ENERGIES
----------------

  NO   OCC          E(Eh)            E(eV)
   0   2.0000    -346.977113     -9441.7273
   1   2.0000     -42.003186     -1142.9648
   2   2.0000     -36.952097     -1005.5177
   3   2.0000     -36.952097     -1005.5177
   4   2.0000     -36.952097     -1005.5177
   5   2.0000      -4.747520      -129.1866
   6   2.0000      -3.133544       -85.2681
   7   2.0000      -3.133544       -85.2681
   8   2.0000      -3.133544       -85.2681
   9   2.0000      -0.427636       -11.6366
  10   2.0000      -0.427636       -11.6366
  11   2.0000      -0.427636       -11.6366
  12   2.0000      -0.427636       -11.6366
  13   2.0000      -0.427636       -11.6366
  14   2.0000      -0.223878        -6.0920
  15   0.0000      -0.030755        -0.8369
  16   0.0000      -0.030755        -0.8369
  17   0.0000      -0.030755        -0.8369
  18   0.0000       0.009982         0.2716
  19   0.0000       0.039635         1.0785

MULLIKEN ATOMIC CHARGES
-----------------------
   0 Zn:    0.000000
Sum of atomic charges:    0.0000000

LOEWDIN ATOMIC CHARGES
----------------------
   0 Zn:    0.000000

Dispersion correction            0.000000000
FINAL SINGLE POINT ENERGY     -1779.424118740905

DIPOLE MOMENT
-------------
                                X             Y             Z
Electronic contribution:     -0.00000       0.00000       0.00000
Nuclear contribution   :      0.00000       0.00000       0.00000
                        -----------------------------------------
Total Dipole Moment    :     -0.00000       0.00000       0.00000
                        -----------------------------------------
Magnitude (a.u.)       :      0.00000
Magnitude (Debye)      :      0.00000

Rotational constants in cm-1:     0.000000     0.000000     0.000000
Rotational constants in MHz :     0.000000     0.000000     0.000000

                             ****ORCA TERMINATED NORMALLY****
TOTAL RUN TIME: 0 days 0 hours 0 minutes 43 seconds 372 msec
