                         Program Version 4.2.0 -  RELEASE  -
|  1> #
|  2> # 72_F tpssh/aug-cc-pvtz
|  3> #
|  4> ! tpssh d3bj aug-cc-pvtz def2/jk grid4 nofinalgrid
|  5>
|  6> *xyz 0 2
|  7> F 0.0 0.0 0.0
|  8> *
|  9>
| 10> %pal
| 11> nprocs 24
| 12> end
| 13>
| 14>
| 15>                          ****END OF INPUT****

CARTESIAN COORDINATES (ANGSTROEM)
---------------------------------
  F      0.000000    0.000000    0.000000

 Total Charge           Charge          ....    0
 Multiplicity           Mult            ....    2
 Number of Electrons    NEL             ....    9
 Basis Dimension        Dim             ....   46

ORBITAL ENERGIES
----------------
                 SPIN UP ORBITALS
  NO   OCC          E(Eh)            E(eV)
   0   1.0000     -24.707591      -672.3277
   1   1.0000      -1.209128       -32.9020
   2   1.0000      -0.539833       -14.6896
   3   1.0000      -0.445860       -12.1325
   4   1.0000      -0.445860       -12.1325
   5   0.0000       0.092441         2.5155
   6   0.0000       0.120333         3.2744
   7   0.0000       0.128795         3.5047
   8   0.0000       0.128795         3.5047
   9   0.0000       0.686725        18.6867

                 SPIN DOWN ORBITALS
  NO   OCC          E(Eh)            E(eV)
   0   1.0000     -24.675286      -671.4487
   1   1.0000      -1.118458       -30.4348
   2   1.0000      -0.417869       -11.3708
   3   1.0000      -0.417869       -11.3708
   4   0.0000      -0.286733        -7.8024
   5   0.0000       0.101556         2.7635
   6   0.0000       0.130504         3.5512
   7   0.0000       0.130504         3.5512
   8   0.0000       0.140968         3.8359

MULLIKEN ATOMIC CHARGES AND SPIN POPULATIONS
--------------------------------------------
   0 F :    0.000000    1.000000
Sum of atomic charges         :    0.0000000

LOEWDIN ATOMIC CHARGES AND SPIN POPULATIONS
-------------------------------------------
   0 F :    0.000000    1.000000

Dispersion correction            0.000000000
FINAL SINGLE POINT ENERGY       -99.761830790640

DIPOLE MOMENT
-------------
                                X             Y             Z
Electronic contribution:     -0.00000      -0.00000       0.00000
Nuclear contribution   :      0.00000       0.00000       0.00000
                        -----------------------------------------
Total Dipole Moment    :     -0.00000      -0.00000       0.00000
                        -----------------------------------------
Magnitude (a.u.)       :      0.00000
Magnitude (Debye)      :      0.00000

Rotational constants in cm-1:     0.000000     0.000000     0.000000
Rotational constants in MHz :     0.000000     0.000000     0.000000

                             ****ORCA TERMINATED NORMALLY****
TOTAL RUN TIME: 0 days 0 hours 0 minutes 2 seconds 633 msec
