                         Program Version 4.2.0 -  RELEASE  -
|  1> #
|  2> # 74_Br tpssh/aug-cc-pvtz
|  3> #
|  4> ! tpssh d3bj aug-cc-pvtz def2/jk grid4 nofinalgrid
|  5>
|  6> *xyz 0 2
|  7> Br 0.0 0.0 0.0
|  8> *
|  9>
| 10> %pal
| 11> nprocs 24
| 12> end
| 13>
| 14>
| 15>                          ****END OF INPUT****

CARTESIAN COORDINATES (ANGSTROEM)
---------------------------------
  Br     0.000000    0.000000    0.000000

 Total Charge           Charge          ....    0
 Multiplicity           Mult            ....    2
 Number of Electrons    NEL             ....   35
 Basis Dimension        Dim             ....   59

ORBITAL ENERGIES
----------------
                 SPIN UP ORBITALS
  NO   OCC          E(Eh)            E(eV)
   0   1.0000    -482.603801    -13132.3171
   1   1.0000     -62.315840     -1695.7002
   2   1.0000     -56.105306     -1526.7030
   3   1.0000     -56.097806     -1526.4989
   4   1.0000     -56.097806     -1526.4989
   5   1.0000      -8.658967      -235.6225
   6   1.0000      -6.486794      -176.5146
   7   1.0000      -6.465066      -175.9234
   8   1.0000      -6.465066      -175.9234
   9   1.0000      -2.608778       -70.9885
  10   1.0000      -2.603380       -70.8416
  11   1.0000      -2.603380       -70.8416
  12   1.0000      -2.587154       -70.4000
  13   1.0000      -2.587154       -70.4000
  14   1.0000      -0.774711       -21.0810
  15   1.0000      -0.362263        -9.8577
  16   1.0000      -0.311795        -8.4844
  17   1.0000      -0.311795        -8.4844
  18   0.0000       0.016698         0.4544
  19   0.0000       0.045168         1.2291
  20   0.0000       0.051542         1.4025
  21   0.0000       0.051542         1.4025
  22   0.0000       0.141409         3.8479

                 SPIN DOWN ORBITALS
  NO   OCC          E(Eh)            E(eV)
   0   1.0000    -482.601472    -13132.2537
   1   1.0000     -62.315057     -1695.6789
   2   1.0000     -56.100806     -1526.5805
   3   1.0000     -56.097036     -1526.4780
   4   1.0000     -56.097036     -1526.4780
   5   1.0000      -8.655570      -235.5300
   6   1.0000      -6.477597      -176.2644
   7   1.0000      -6.463592      -175.8833
   8   1.0000      -6.463592      -175.8833
   9   1.0000      -2.600539       -70.7643
  10   1.0000      -2.597229       -70.6742
  11   1.0000      -2.597229       -70.6742
  12   1.0000      -2.586231       -70.3749
  13   1.0000      -2.586231       -70.3749
  14   1.0000      -0.729928       -19.8623
  15   1.0000      -0.298036        -8.1100
  16   1.0000      -0.298036        -8.1100
  17   0.0000      -0.244286        -6.6474
  18   0.0000       0.023269         0.6332
  19   0.0000       0.052986         1.4418
  20   0.0000       0.052986         1.4418
  21   0.0000       0.056300         1.5320

MULLIKEN ATOMIC CHARGES AND SPIN POPULATIONS
--------------------------------------------
   0 Br:    0.000000    1.000000
Sum of atomic charges         :    0.0000000

LOEWDIN ATOMIC CHARGES AND SPIN POPULATIONS
-------------------------------------------
   0 Br:   -0.000000    1.000000

Dispersion correction            0.000000000
FINAL SINGLE POINT ENERGY     -2574.071556277885

DIPOLE MOMENT
-------------
                                X             Y             Z
Electronic contribution:      0.00000      -0.00000      -0.00000
Nuclear contribution   :      0.00000       0.00000       0.00000
                        -----------------------------------------
Total Dipole Moment    :      0.00000      -0.00000      -0.00000
                        -----------------------------------------
Magnitude (a.u.)       :      0.00000
Magnitude (Debye)      :      0.00000

Rotational constants in cm-1:     0.000000     0.000000     0.000000
Rotational constants in MHz :     0.000000     0.000000     0.000000

                             ****ORCA TERMINATED NORMALLY****
TOTAL RUN TIME: 0 days 0 hours 0 minutes 7 seconds 130 msec
