                         Program Version 4.2.0 -  RELEASE  -
|  1> #
|  2> # 75_O tpssh/aug-cc-pvtz
|  3> #
|  4> ! tpssh d3bj aug-cc-pvtz def2/jk grid4 nofinalgrid
|  5>
|  6> *xyz 0 3
|  7> O 0.0 0.0 0.0
|  8> *
|  9>
| 10> %pal
| 11> nprocs 24
| 12> end
| 13>
| 14>
| 15>                          ****END OF INPUT****

CARTESIAN COORDINATES (ANGSTROEM)
---------------------------------
  O      0.000000    0.000000    0.000000

 Total Charge           Charge          ....    0
 Multiplicity           Mult            ....    3
 Number of Electrons    NEL             ....    8
 Basis Dimension        Dim             ....   46

ORBITAL ENERGIES
----------------
                 SPIN UP ORBITALS
  NO   OCC          E(Eh)            E(eV)
   0   1.0000     -19.205078      -522.5968
   1   1.0000      -0.999498       -27.1977
   2   1.0000      -0.438763       -11.9393
   3   1.0000      -0.438763       -11.9393
   4   1.0000      -0.356990        -9.7142
   5   0.0000       0.065352         1.7783
   6   0.0000       0.094290         2.5658
   7   0.0000       0.094291         2.5658
   8   0.0000       0.102090         2.7780
   9   0.0000       0.488456        13.2916

                 SPIN DOWN ORBITALS
  NO   OCC          E(Eh)            E(eV)
   0   1.0000     -19.149358      -521.0805
   1   1.0000      -0.837095       -22.7785
   2   1.0000      -0.317387        -8.6365
   3   0.0000      -0.185997        -5.0612
   4   0.0000      -0.185997        -5.0612
   5   0.0000       0.085369         2.3230
   6   0.0000       0.105843         2.8801
   7   0.0000       0.121976         3.3191

MULLIKEN ATOMIC CHARGES AND SPIN POPULATIONS
--------------------------------------------
   0 O :    0.000000    2.000000
Sum of atomic charges         :    0.0000000

LOEWDIN ATOMIC CHARGES AND SPIN POPULATIONS
-------------------------------------------
   0 O :    0.000000    2.000000

Dispersion correction            0.000000000
FINAL SINGLE POINT ENERGY       -75.097290747220

DIPOLE MOMENT
-------------
                                X             Y             Z
Electronic contribution:     -0.00000       0.00000      -0.00000
Nuclear contribution   :      0.00000       0.00000       0.00000
                        -----------------------------------------
Total Dipole Moment    :     -0.00000       0.00000      -0.00000
                        -----------------------------------------
Magnitude (a.u.)       :      0.00000
Magnitude (Debye)      :      0.00000

Rotational constants in cm-1:     0.000000     0.000000     0.000000
Rotational constants in MHz :     0.000000     0.000000     0.000000

                             ****ORCA TERMINATED NORMALLY****
TOTAL RUN TIME: 0 days 0 hours 0 minutes 2 seconds 542 msec
