                         Program Version 4.2.0 -  RELEASE  -
|  1> #
|  2> # 76_S tpssh/aug-cc-pvtz
|  3> #
|  4> ! tpssh d3bj aug-cc-pvtz def2/jk grid4 nofinalgrid
|  5>
|  6> *xyz 0 3
|  7> S 0.0 0.0 0.0
|  8> *
|  9>
| 10> %pal
| 11> nprocs 24
| 12> end
| 13>
| 14>
| 15>                          ****END OF INPUT****

CARTESIAN COORDINATES (ANGSTROEM)
---------------------------------
  S      0.000000    0.000000    0.000000

 Total Charge           Charge          ....    0
 Multiplicity           Mult            ....    3
 Number of Electrons    NEL             ....   16
 Basis Dimension        Dim             ....   50

ORBITAL ENERGIES
----------------
                 SPIN UP ORBITALS
  NO   OCC          E(Eh)            E(eV)
   0   1.0000     -88.803102     -2416.4553
   1   1.0000      -7.924422      -215.6345
   2   1.0000      -5.880908      -160.0276
   3   1.0000      -5.880908      -160.0276
   4   1.0000      -5.861140      -159.4897
   5   1.0000      -0.708353       -19.2753
   6   1.0000      -0.325733        -8.8636
   7   1.0000      -0.325733        -8.8636
   8   1.0000      -0.273354        -7.4383
   9   0.0000       0.025842         0.7032
  10   0.0000       0.047095         1.2815
  11   0.0000       0.047095         1.2815
  12   0.0000       0.053759         1.4629
  13   0.0000       0.136655         3.7186

                 SPIN DOWN ORBITALS
  NO   OCC          E(Eh)            E(eV)
   0   1.0000     -88.792605     -2416.1696
   1   1.0000      -7.914232      -215.3572
   2   1.0000      -5.861025      -159.4866
   3   1.0000      -5.861025      -159.4866
   4   1.0000      -5.855284      -159.3304
   5   1.0000      -0.609220       -16.5777
   6   1.0000      -0.250503        -6.8165
   7   0.0000      -0.182954        -4.9784
   8   0.0000      -0.182954        -4.9784
   9   0.0000       0.042069         1.1447
  10   0.0000       0.056959         1.5499
  11   0.0000       0.065329         1.7777

MULLIKEN ATOMIC CHARGES AND SPIN POPULATIONS
--------------------------------------------
   0 S :   -0.000000    2.000000
Sum of atomic charges         :   -0.0000000

LOEWDIN ATOMIC CHARGES AND SPIN POPULATIONS
-------------------------------------------
   0 S :    0.000000    2.000000

Dispersion correction            0.000000000
FINAL SINGLE POINT ENERGY      -398.137597512785

DIPOLE MOMENT
-------------
                                X             Y             Z
Electronic contribution:     -0.00000       0.00000      -0.00000
Nuclear contribution   :      0.00000       0.00000       0.00000
                        -----------------------------------------
Total Dipole Moment    :     -0.00000       0.00000      -0.00000
                        -----------------------------------------
Magnitude (a.u.)       :      0.00000
Magnitude (Debye)      :      0.00000

Rotational constants in cm-1:     0.000000     0.000000     0.000000
Rotational constants in MHz :     0.000000     0.000000     0.000000

                             ****ORCA TERMINATED NORMALLY****
TOTAL RUN TIME: 0 days 0 hours 0 minutes 3 seconds 89 msec
