                         Program Version 4.2.0 -  RELEASE  -
|  1> #
|  2> # 01_ScH ccsd(t)/cbs
|  3> #
|  4> ! ccsd(t) extrapolate(3/4,def2) verytightscf
|  5>
|  6> *xyz 0 1
|  7>   Sc  0.00000000000000      0.00000000000000      0.11546868383427
|  8>   H   0.00000000000000      0.00000000000000      1.88453131616573
|  9> *
| 10>
| 11> %maxcore 5000
| 12> %pal
| 13> nprocs 21
| 14> end
| 15>
| 16>
| 17>                          ****END OF INPUT****
 Total Charge           Charge          ....    0
 Multiplicity           Mult            ....    1
 Number of Electrons    NEL             ....   22
E(0)                                       ...   -760.263210051
E(0)                                       ...   -760.263210051
E(CORR)                                    ...     -0.305444867
E(TOT)                                     ...   -760.568654918
E(CCSD(T))                                 ...   -760.579196470

CARTESIAN COORDINATES (ANGSTROEM)
---------------------------------
  Sc     0.000000    0.000000    0.115469
  H      0.000000    0.000000    1.884531

 Multiplicity           Mult            ....    1
 Number of Electrons    NEL             ....   22
 Basis Dimension        Dim             ....  123

ORBITAL ENERGIES
----------------

  NO   OCC          E(Eh)            E(eV)
   0   2.0000    -165.994915     -4516.9513
   1   2.0000     -19.191736      -522.2337
   2   2.0000     -15.780254      -429.4025
   3   2.0000     -15.780254      -429.4025
   4   2.0000     -15.771788      -429.1722
   5   2.0000      -2.655327       -72.2551
   6   2.0000      -1.654803       -45.0295
   7   2.0000      -1.654803       -45.0295
   8   2.0000      -1.654703       -45.0268
   9   2.0000      -0.408271       -11.1096
  10   2.0000      -0.230713        -6.2780
  11   0.0000       0.017796         0.4842
  12   0.0000       0.017796         0.4842
  13   0.0000       0.025121         0.6836
  14   0.0000       0.070529         1.9192
  15   0.0000       0.073823         2.0088

E(0)                                       ...   -760.277265023
E(0)                                       ...   -760.277265023
E(CORR)                                    ...     -0.349056414
E(TOT)                                     ...   -760.626321437
E(CCSD(T))                                 ...   -760.640322898

MULLIKEN ATOMIC CHARGES
-----------------------
   0 Sc:    0.246174
   1 H :   -0.246174
Sum of atomic charges:   -0.0000000

LOEWDIN ATOMIC CHARGES
----------------------
   0 Sc:    0.187801
   1 H :   -0.187801

  Mayer bond orders larger than 0.100000
B(  0-Sc,  1-H ) :   0.8662

FINAL SINGLE POINT ENERGY      -760.677126530222

DIPOLE MOMENT
-------------
                                X             Y             Z
Electronic contribution:     -0.00000       0.00000      -2.44052
Nuclear contribution   :      0.00000       0.00000       1.73028
                        -----------------------------------------
Total Dipole Moment    :     -0.00000       0.00000      -0.71024
                        -----------------------------------------
Magnitude (a.u.)       :      0.71024
Magnitude (Debye)      :      1.80528

Rotational constants in cm-1:     0.000000     5.463605     5.463605
Rotational constants in MHz :     0.000000 163794.743331 163794.743331

                             ****ORCA TERMINATED NORMALLY****
TOTAL RUN TIME: 0 days 0 hours 0 minutes 25 seconds 513 msec
