                         Program Version 4.2.0 -  RELEASE  -
|  1> #
|  2> # 02_ScF ccsd(t)/cbs
|  3> #
|  4> ! ccsd(t) extrapolate(3/4,def2) verytightscf
|  5>
|  6> *xyz 0 1
|  7>   Sc  0.00000000000000      0.00000000000000      0.10357126289626
|  8>   F   0.00000000000000      0.00000000000000      1.89642873710374
|  9> *
| 10>
| 11> %maxcore 5000
| 12> %pal
| 13> nprocs 24
| 14> end
| 15>
| 16>
| 17>                          ****END OF INPUT****
 Total Charge           Charge          ....    0
 Multiplicity           Mult            ....    1
 Number of Electrons    NEL             ....   30
E(0)                                       ...   -859.281498241
E(0)                                       ...   -859.281498241
E(CORR)                                    ...     -0.543949793
E(TOT)                                     ...   -859.825448034
E(CCSD(T))                                 ...   -859.845146411

CARTESIAN COORDINATES (ANGSTROEM)
---------------------------------
  Sc     0.000000    0.000000    0.103571
  F      0.000000    0.000000    1.896429

 Multiplicity           Mult            ....    1
 Number of Electrons    NEL             ....   30
 Basis Dimension        Dim             ....  150

ORBITAL ENERGIES
----------------

  NO   OCC          E(Eh)            E(eV)
   0   2.0000    -166.035688     -4518.0608
   1   2.0000     -26.256100      -714.4648
   2   2.0000     -19.240986      -523.5739
   3   2.0000     -15.827591      -430.6906
   4   2.0000     -15.827591      -430.6906
   5   2.0000     -15.821692      -430.5301
   6   2.0000      -2.700411       -73.4819
   7   2.0000      -1.734253       -47.1914
   8   2.0000      -1.694327       -46.1050
   9   2.0000      -1.694327       -46.1050
  10   2.0000      -1.494503       -40.6675
  11   2.0000      -0.643081       -17.4991
  12   2.0000      -0.623497       -16.9662
  13   2.0000      -0.623497       -16.9662
  14   2.0000      -0.241621        -6.5748
  15   0.0000       0.016289         0.4432
  16   0.0000       0.016289         0.4432
  17   0.0000       0.028861         0.7853
  18   0.0000       0.060606         1.6492
  19   0.0000       0.060606         1.6492

E(0)                                       ...   -859.299893479
E(0)                                       ...   -859.299893479
E(CORR)                                    ...     -0.608065856
E(TOT)                                     ...   -859.907959335
E(CCSD(T))                                 ...   -859.932707250

MULLIKEN ATOMIC CHARGES
-----------------------
   0 Sc:    0.403870
   1 F :   -0.403870
Sum of atomic charges:   -0.0000000

LOEWDIN ATOMIC CHARGES
----------------------
   0 Sc:   -0.160535
   1 F :    0.160535

  Mayer bond orders larger than 0.100000
B(  0-Sc,  1-F ) :   1.0074

FINAL SINGLE POINT ENERGY      -859.986474726539

DIPOLE MOMENT
-------------
                                X             Y             Z
Electronic contribution:     -0.00000      -0.00000      -1.00487
Nuclear contribution   :      0.00000       0.00000       0.30099
                        -----------------------------------------
Total Dipole Moment    :     -0.00000      -0.00000      -0.70388
                        -----------------------------------------
Magnitude (a.u.)       :      0.70388
Magnitude (Debye)      :      1.78913

Rotational constants in cm-1:     0.000000     0.392705     0.392705
Rotational constants in MHz :     0.000000 11772.989606 11772.989606

                             ****ORCA TERMINATED NORMALLY****
TOTAL RUN TIME: 0 days 0 hours 0 minutes 43 seconds 201 msec
