                         Program Version 4.2.0 -  RELEASE  -
|  1> #
|  2> # 03_ScCl ccsd(t)/cbs
|  3> #
|  4> ! ccsd(t) extrapolate(3/4,def2) verytightscf
|  5>
|  6> *xyz 0 1
|  7>   Sc  0.00000000000000      0.00000000000000     -0.11786902866458
|  8>   Cl  0.00000000000000      0.00000000000000      2.11786902866458
|  9> *
| 10>
| 11> %maxcore 5000
| 12> %pal
| 13> nprocs 24
| 14> end
| 15>
| 16>
| 17>                          ****END OF INPUT****
 Total Charge           Charge          ....    0
 Multiplicity           Mult            ....    1
 Number of Electrons    NEL             ....   38
E(0)                                       ...  -1219.308481528
E(0)                                       ...  -1219.308481528
E(CORR)                                    ...     -0.492951517
E(TOT)                                     ...  -1219.801433045
E(CCSD(T))                                 ...  -1219.822961693

CARTESIAN COORDINATES (ANGSTROEM)
---------------------------------
  Sc     0.000000    0.000000   -0.117869
  Cl     0.000000    0.000000    2.117869

 Multiplicity           Mult            ....    1
 Number of Electrons    NEL             ....   38
 Basis Dimension        Dim             ....  163

ORBITAL ENERGIES
----------------

  NO   OCC          E(Eh)            E(eV)
   0   2.0000    -166.027472     -4517.8372
   1   2.0000    -104.805555     -2851.9041
   2   2.0000     -19.227951      -523.2191
   3   2.0000     -15.816112      -430.3783
   4   2.0000     -15.816112      -430.3783
   5   2.0000     -15.807650      -430.1480
   6   2.0000     -10.533160      -286.6219
   7   2.0000      -7.999422      -217.6753
   8   2.0000      -7.999005      -217.6640
   9   2.0000      -7.999005      -217.6640
  10   2.0000      -2.689138       -73.1752
  11   2.0000      -1.693826       -46.0913
  12   2.0000      -1.685280       -45.8588
  13   2.0000      -1.685280       -45.8588
  14   2.0000      -1.052997       -28.6535
  15   2.0000      -0.495339       -13.4788
  16   2.0000      -0.458690       -12.4816
  17   2.0000      -0.458690       -12.4816
  18   2.0000      -0.245565        -6.6822
  19   0.0000       0.017464         0.4752
  20   0.0000       0.017464         0.4752
  21   0.0000       0.019115         0.5201
  22   0.0000       0.061067         1.6617
  23   0.0000       0.061067         1.6617

E(0)                                       ...  -1219.334878625
E(0)                                       ...  -1219.334878625
E(CORR)                                    ...     -0.554729468
E(TOT)                                     ...  -1219.889608092
E(CCSD(T))                                 ...  -1219.916373409

MULLIKEN ATOMIC CHARGES
-----------------------
   0 Sc:    0.309847
   1 Cl:   -0.309847
Sum of atomic charges:    0.0000000

LOEWDIN ATOMIC CHARGES
----------------------
   0 Sc:   -0.612938
   1 Cl:    0.612938

  Mayer bond orders larger than 0.100000
B(  0-Sc,  1-Cl) :   1.1044

FINAL SINGLE POINT ENERGY     -1219.969649731852

DIPOLE MOMENT
-------------
                                X             Y             Z
Electronic contribution:     -0.00000      -0.00000      -2.18925
Nuclear contribution   :      0.00000       0.00000       1.04067
                        -----------------------------------------
Total Dipole Moment    :     -0.00000      -0.00000      -1.14858
                        -----------------------------------------
Magnitude (a.u.)       :      1.14858
Magnitude (Debye)      :      2.91946

Rotational constants in cm-1:     0.000000     0.170138     0.170138
Rotational constants in MHz :     0.000000  5100.617263  5100.617263

                             ****ORCA TERMINATED NORMALLY****
TOTAL RUN TIME: 0 days 0 hours 0 minutes 57 seconds 581 msec
