                         Program Version 4.2.0 -  RELEASE  -
|  1> #
|  2> # 04_ScBr ccsd(t)/cbs
|  3> #
|  4> ! nori ccsd(t) extrapolate(3/4,def2) verytightscf
|  5>
|  6> *xyz 0 1
|  7>   Sc  0.00000000000000      0.00000000000000     -0.19342129509946
|  8>   Br  0.00000000000000      0.00000000000000      2.19342129509946
|  9> *
| 10>
| 11> %maxcore 5000
| 12> %pal
| 13> nprocs 24
| 14> end
| 15>
| 16>
| 17>                          ****END OF INPUT****
 Total Charge           Charge          ....    0
 Multiplicity           Mult            ....    1
 Number of Electrons    NEL             ....   56
E(0)                                       ...  -3332.210923300
E(0)                                       ...  -3332.210923300
E(CORR)                                    ...     -0.566857610
E(TOT)                                     ...  -3332.777780910
E(CCSD(T))                                 ...  -3332.800292063

CARTESIAN COORDINATES (ANGSTROEM)
---------------------------------
  Sc     0.000000    0.000000   -0.193421
  Br     0.000000    0.000000    2.193421

 Multiplicity           Mult            ....    1
 Number of Electrons    NEL             ....   56
 Basis Dimension        Dim             ....  182

ORBITAL ENERGIES
----------------

  NO   OCC          E(Eh)            E(eV)
   0   2.0000    -489.996069    -13333.4709
   1   2.0000    -166.025617     -4517.7867
   2   2.0000     -65.137381     -1772.4782
   3   2.0000     -58.491926     -1591.6462
   4   2.0000     -58.491926     -1591.6462
   5   2.0000     -58.491859     -1591.6444
   6   2.0000     -19.224591      -523.1277
   7   2.0000     -15.813189      -430.2987
   8   2.0000     -15.813189      -430.2987
   9   2.0000     -15.804039      -430.0498
  10   2.0000      -9.810552      -266.9587
  11   2.0000      -7.418456      -201.8664
  12   2.0000      -7.417688      -201.8455
  13   2.0000      -7.417688      -201.8455
  14   2.0000      -3.160137       -85.9917
  15   2.0000      -3.159636       -85.9781
  16   2.0000      -3.159636       -85.9781
  17   2.0000      -3.158965       -85.9598
  18   2.0000      -3.158965       -85.9598
  19   2.0000      -2.686419       -73.1012
  20   2.0000      -1.690278       -45.9948
  21   2.0000      -1.683150       -45.8008
  22   2.0000      -1.683150       -45.8008
  23   2.0000      -0.977336       -26.5947
  24   2.0000      -0.456802       -12.4302
  25   2.0000      -0.417590       -11.3632
  26   2.0000      -0.417590       -11.3632
  27   2.0000      -0.246856        -6.7173
  28   0.0000       0.016088         0.4378
  29   0.0000       0.017603         0.4790
  30   0.0000       0.017603         0.4790
  31   0.0000       0.060798         1.6544
  32   0.0000       0.060798         1.6544

E(0)                                       ...  -3332.273801225
E(0)                                       ...  -3332.273801225
E(CORR)                                    ...     -0.905752539
E(TOT)                                     ...  -3333.179553764
E(CCSD(T))                                 ...  -3333.209837203

MULLIKEN ATOMIC CHARGES
-----------------------
   0 Sc:    0.262355
   1 Br:   -0.262355
Sum of atomic charges:   -0.0000000

LOEWDIN ATOMIC CHARGES
----------------------
   0 Sc:   -0.748097
   1 Br:    0.748097

  Mayer bond orders larger than 0.100000
B(  0-Sc,  1-Br) :   1.1641

FINAL SINGLE POINT ENERGY     -3333.475288264946

DIPOLE MOMENT
-------------
                                X             Y             Z
Electronic contribution:      0.00000      -0.00000       2.53083
Nuclear contribution   :      0.00000       0.00000      -3.76776
                        -----------------------------------------
Total Dipole Moment    :      0.00000      -0.00000      -1.23693
                        -----------------------------------------
Magnitude (a.u.)       :      1.23693
Magnitude (Debye)      :      3.14403

Rotational constants in cm-1:     0.000000     0.102849     0.102849
Rotational constants in MHz :     0.000000  3083.332036  3083.332036

                             ****ORCA TERMINATED NORMALLY****
TOTAL RUN TIME: 0 days 0 hours 1 minutes 47 seconds 810 msec
