                         Program Version 4.2.0 -  RELEASE  -
|  1> #
|  2> # 05_ScO ccsd(t)/cbs
|  3> #
|  4> ! ccsd(t) extrapolate(3/4,def2) verytightscf
|  5>
|  6> *xyz 0 2
|  7>   Sc  0.00000000000000      0.00000000000000      0.16492994527036
|  8>   O   0.00000000000000      0.00000000000000      1.83507005472964
|  9> *
| 10>
| 11> %maxcore 5000
| 12> %pal
| 13> nprocs 24
| 14> end
| 15>
| 16>
| 17>                          ****END OF INPUT****
 Total Charge           Charge          ....    0
 Multiplicity           Mult            ....    2
 Number of Electrons    NEL             ....   29
E(0)                                       ...   -834.655695187
E(0)                                       ...   -834.655695187
E(CORR)                                    ...     -0.528938714
E(TOT)                                     ...   -835.184633901
E(CCSD(T))                                 ...   -835.215060091

CARTESIAN COORDINATES (ANGSTROEM)
---------------------------------
  Sc     0.000000    0.000000    0.164930
  O      0.000000    0.000000    1.835070

 Multiplicity           Mult            ....    2
 Number of Electrons    NEL             ....   29
 Basis Dimension        Dim             ....  150

ORBITAL ENERGIES
----------------
                 SPIN UP ORBITALS
  NO   OCC          E(Eh)            E(eV)
   0   1.0000    -165.947916     -4515.6724
   1   1.0000     -20.469125      -556.9932
   2   1.0000     -19.139730      -520.8185
   3   1.0000     -15.726692      -427.9451
   4   1.0000     -15.726692      -427.9451
   5   1.0000     -15.725527      -427.9134
   6   1.0000      -2.617680       -71.2307
   7   1.0000      -1.660851       -45.1941
   8   1.0000      -1.621421       -44.1211
   9   1.0000      -1.621421       -44.1211
  10   1.0000      -1.105724       -30.0883
  11   1.0000      -0.423917       -11.5354
  12   1.0000      -0.415270       -11.3001
  13   1.0000      -0.415270       -11.3001
  14   1.0000      -0.247850        -6.7444
  15   0.0000       0.003946         0.1074
  16   0.0000       0.003946         0.1074
  17   0.0000       0.031815         0.8657
  18   0.0000       0.066202         1.8014
  19   0.0000       0.070466         1.9175

                 SPIN DOWN ORBITALS
  NO   OCC          E(Eh)            E(eV)
   0   1.0000    -165.946120     -4515.6235
   1   1.0000     -20.473137      -557.1024
   2   1.0000     -19.135995      -520.7169
   3   1.0000     -15.725179      -427.9039
   4   1.0000     -15.725179      -427.9039
   5   1.0000     -15.722162      -427.8218
   6   1.0000      -2.605879       -70.9096
   7   1.0000      -1.644859       -44.7589
   8   1.0000      -1.616192       -43.9788
   9   1.0000      -1.616192       -43.9788
  10   1.0000      -1.117036       -30.3961
  11   1.0000      -0.435623       -11.8539
  12   1.0000      -0.425627       -11.5819
  13   1.0000      -0.425627       -11.5819
  14   0.0000      -0.008256        -0.2247
  15   0.0000       0.031166         0.8481
  16   0.0000       0.031166         0.8481
  17   0.0000       0.048499         1.3197
  18   0.0000       0.083012         2.2589

E(0)                                       ...   -834.673530780
E(0)                                       ...   -834.673530780
E(CORR)                                    ...     -0.591299861
E(TOT)                                     ...   -835.264830641
E(CCSD(T))                                 ...   -835.300485413

MULLIKEN ATOMIC CHARGES AND SPIN DENSITIES
------------------------------------------
   0 Sc:    0.469494    1.062089
   1 O :   -0.469494   -0.062089
Sum of atomic charges       :   -0.0000000

LOEWDIN ATOMIC CHARGES AND SPIN DENSITIES
-----------------------------------------
   0 Sc:   -0.105853    1.023828
   1 O :    0.105853   -0.023828

  Mayer bond orders larger than 0.100000
B(  0-Sc,  1-O ) :   2.0916

FINAL SINGLE POINT ENERGY      -835.353008491966

DIPOLE MOMENT
-------------
                                X             Y             Z
Electronic contribution:     -0.00000       0.00000      -2.54154
Nuclear contribution   :      0.00000       0.00000       1.22710
                        -----------------------------------------
Total Dipole Moment    :     -0.00000       0.00000      -1.31444
                        -----------------------------------------
Magnitude (a.u.)       :      1.31444
Magnitude (Debye)      :      3.34103

Rotational constants in cm-1:     0.000000     0.512165     0.512165
Rotational constants in MHz :     0.000000 15354.316375 15354.316375

                             ****ORCA TERMINATED NORMALLY****
TOTAL RUN TIME: 0 days 0 hours 1 minutes 51 seconds 507 msec
