                         Program Version 4.2.0 -  RELEASE  -
|  1> #
|  2> # 06_ScS ccsd(t)/cbs
|  3> #
|  4> ! ccsd(t) extrapolate(3/4,def2) verytightscf
|  5>
|  6> *xyz 0 2
|  7>   Sc  0.00000000000000      0.00000000000000     -0.07079618847288
|  8>   S   0.00000000000000      0.00000000000000      2.07079618847288
|  9> *
| 10>
| 11> %maxcore 5000
| 12> %pal
| 13> nprocs 24
| 14> end
| 15>
| 16>
| 17>                          ****END OF INPUT****
 Total Charge           Charge          ....    0
 Multiplicity           Mult            ....    2
 Number of Electrons    NEL             ....   37
E(0)                                       ...  -1157.313771033
E(0)                                       ...  -1157.313771033
E(CORR)                                    ...     -0.466531766
E(TOT)                                     ...  -1157.780302798
E(CCSD(T))                                 ...  -1157.809722808

CARTESIAN COORDINATES (ANGSTROEM)
---------------------------------
  Sc     0.000000    0.000000   -0.070796
  S      0.000000    0.000000    2.070796

 Multiplicity           Mult            ....    2
 Number of Electrons    NEL             ....   37
 Basis Dimension        Dim             ....  163

ORBITAL ENERGIES
----------------
                 SPIN UP ORBITALS
  NO   OCC          E(Eh)            E(eV)
   0   1.0000    -166.004872     -4517.2222
   1   1.0000     -91.867120     -2499.8314
   2   1.0000     -19.200756      -522.4791
   3   1.0000     -15.787147      -429.5901
   4   1.0000     -15.787147      -429.5901
   5   1.0000     -15.786085      -429.5612
   6   1.0000      -8.871526      -241.4065
   7   1.0000      -6.551682      -178.2803
   8   1.0000      -6.551211      -178.2675
   9   1.0000      -6.551211      -178.2675
  10   1.0000      -2.672073       -72.7108
  11   1.0000      -1.685790       -45.8727
  12   1.0000      -1.671933       -45.4956
  13   1.0000      -1.671933       -45.4956
  14   1.0000      -0.817411       -22.2429
  15   1.0000      -0.363984        -9.9045
  16   1.0000      -0.326195        -8.8762
  17   1.0000      -0.326195        -8.8762
  18   1.0000      -0.267659        -7.2834
  19   0.0000      -0.003838        -0.1044
  20   0.0000      -0.003838        -0.1044
  21   0.0000       0.008318         0.2263
  22   0.0000       0.052444         1.4271
  23   0.0000       0.052444         1.4271

                 SPIN DOWN ORBITALS
  NO   OCC          E(Eh)            E(eV)
   0   1.0000    -166.003079     -4517.1734
   1   1.0000     -91.868022     -2499.8560
   2   1.0000     -19.196195      -522.3550
   3   1.0000     -15.785083      -429.5340
   4   1.0000     -15.785083      -429.5340
   5   1.0000     -15.780990      -429.4226
   6   1.0000      -8.872359      -241.4292
   7   1.0000      -6.553304      -178.3245
   8   1.0000      -6.552852      -178.3122
   9   1.0000      -6.552852      -178.3122
  10   1.0000      -2.656143       -72.2773
  11   1.0000      -1.664709       -45.2990
  12   1.0000      -1.664709       -45.2990
  13   1.0000      -1.655907       -45.0595
  14   1.0000      -0.823432       -22.4067
  15   1.0000      -0.361808        -9.8453
  16   1.0000      -0.330853        -9.0030
  17   1.0000      -0.330853        -9.0030
  18   0.0000      -0.017596        -0.4788
  19   0.0000       0.026303         0.7157
  20   0.0000       0.026303         0.7157
  21   0.0000       0.038272         1.0414
  22   0.0000       0.069078         1.8797

E(0)                                       ...  -1157.338416812
E(0)                                       ...  -1157.338416812
E(CORR)                                    ...     -0.525801421
E(TOT)                                     ...  -1157.864218234
E(CCSD(T))                                 ...  -1157.899089921

MULLIKEN ATOMIC CHARGES AND SPIN DENSITIES
------------------------------------------
   0 Sc:    0.314853    1.102817
   1 S :   -0.314853   -0.102817
Sum of atomic charges       :   -0.0000000

LOEWDIN ATOMIC CHARGES AND SPIN DENSITIES
-----------------------------------------
   0 Sc:   -0.546450    1.027999
   1 S :    0.546450   -0.027999

  Mayer bond orders larger than 0.100000
B(  0-Sc,  1-S ) :   2.2083

FINAL SINGLE POINT ENERGY     -1157.950426291306

DIPOLE MOMENT
-------------
                                X             Y             Z
Electronic contribution:      0.00000      -0.00000      -4.41563
Nuclear contribution   :      0.00000       0.00000       2.42233
                        -----------------------------------------
Total Dipole Moment    :      0.00000      -0.00000      -1.99330
                        -----------------------------------------
Magnitude (a.u.)       :      1.99330
Magnitude (Debye)      :      5.06656

Rotational constants in cm-1:     0.000000     0.196398     0.196398
Rotational constants in MHz :     0.000000  5887.862686  5887.862686

                             ****ORCA TERMINATED NORMALLY****
TOTAL RUN TIME: 0 days 0 hours 2 minutes 56 seconds 887 msec
