                         Program Version 4.2.0 -  RELEASE  -
|  1> #
|  2> # 07_TiH ccsd(t)/cbs
|  3> #
|  4> ! ccsd(t) extrapolate(3/4,def2) verytightscf
|  5>
|  6> *xyz 0 4
|  7>   Ti  0.00000000000000      0.00000000000000      0.11662089429905
|  8>   H   0.00000000000000      0.00000000000000      1.88337910570095
|  9> *
| 10>
| 11> %maxcore 5000
| 12> %pal
| 13> nprocs 24
| 14> end
| 15>
| 16>
| 17>                          ****END OF INPUT****
 Total Charge           Charge          ....    0
 Multiplicity           Mult            ....    4
 Number of Electrons    NEL             ....   23
E(0)                                       ...   -848.943759351
E(0)                                       ...   -848.943759351
E(CORR)                                    ...     -0.336125910
E(TOT)                                     ...   -849.279885261
E(CCSD(T))                                 ...   -849.290656855

CARTESIAN COORDINATES (ANGSTROEM)
---------------------------------
  Ti     0.000000    0.000000    0.116621
  H      0.000000    0.000000    1.883379

 Multiplicity           Mult            ....    4
 Number of Electrons    NEL             ....   23
 Basis Dimension        Dim             ....  123

ORBITAL ENERGIES
----------------
                 SPIN UP ORBITALS
  NO   OCC          E(Eh)            E(eV)
   0   1.0000    -183.259724     -4986.7506
   1   1.0000     -21.425877      -583.0277
   2   1.0000     -17.795171      -484.2312
   3   1.0000     -17.795171      -484.2312
   4   1.0000     -17.794274      -484.2068
   5   1.0000      -2.924376       -79.5763
   6   1.0000      -1.893605       -51.5276
   7   1.0000      -1.849430       -50.3256
   8   1.0000      -1.849430       -50.3256
   9   1.0000      -0.416115       -11.3231
  10   1.0000      -0.416115       -11.3231
  11   1.0000      -0.387843       -10.5538
  12   1.0000      -0.232395        -6.3238
  13   0.0000       0.013212         0.3595
  14   0.0000       0.013212         0.3595
  15   0.0000       0.046082         1.2540
  16   0.0000       0.067163         1.8276
  17   0.0000       0.085871         2.3367

                 SPIN DOWN ORBITALS
  NO   OCC          E(Eh)            E(eV)
   0   1.0000    -183.258125     -4986.7071
   1   1.0000     -21.391703      -582.0978
   2   1.0000     -17.768800      -483.5136
   3   1.0000     -17.768800      -483.5136
   4   1.0000     -17.746430      -482.9049
   5   1.0000      -2.794362       -76.0385
   6   1.0000      -1.729795       -47.0701
   7   1.0000      -1.729795       -47.0701
   8   1.0000      -1.659118       -45.1469
   9   1.0000      -0.351652        -9.5689
  10   0.0000       0.014359         0.3907
  11   0.0000       0.034095         0.9278
  12   0.0000       0.034095         0.9278
  13   0.0000       0.058228         1.5845
  14   0.0000       0.098273         2.6741

E(0)                                       ...   -848.960264566
E(0)                                       ...   -848.960264566
E(CORR)                                    ...     -0.364315889
E(TOT)                                     ...   -849.324580454
E(CCSD(T))                                 ...   -849.337032136

MULLIKEN ATOMIC CHARGES AND SPIN DENSITIES
------------------------------------------
   0 Ti:    0.312993    2.978407
   1 H :   -0.312993    0.021593
Sum of atomic charges       :    0.0000000

LOEWDIN ATOMIC CHARGES AND SPIN DENSITIES
-----------------------------------------
   0 Ti:    0.216231    2.941588
   1 H :   -0.216231    0.058412

  Mayer bond orders larger than 0.100000
B(  0-Ti,  1-H ) :   0.8728

FINAL SINGLE POINT ENERGY      -849.361431501049

DIPOLE MOMENT
-------------
                                X             Y             Z
Electronic contribution:      0.00000      -0.00000      -2.57762
Nuclear contribution   :      0.00000       0.00000       1.75604
                        -----------------------------------------
Total Dipole Moment    :      0.00000      -0.00000      -0.82158
                        -----------------------------------------
Magnitude (a.u.)       :      0.82158
Magnitude (Debye)      :      2.08830

Rotational constants in cm-1:     0.000000     5.470494     5.470494
Rotational constants in MHz :     0.000000 164001.275229 164001.275229

                             ****ORCA TERMINATED NORMALLY****
TOTAL RUN TIME: 0 days 0 hours 0 minutes 59 seconds 596 msec
