                         Program Version 4.2.0 -  RELEASE  -
|  1> #
|  2> # 08_TiF ccsd(t)/cbs
|  3> #
|  4> ! ccsd(t) extrapolate(3/4,def2) verytightscf
|  5>
|  6> *xyz 0 4
|  7>   Ti  0.00000000000000      0.00000000000000      0.11041057480115
|  8>   F   0.00000000000000      0.00000000000000      1.88958942519885
|  9> *
| 10>
| 11> %maxcore 5000
| 12> %pal
| 13> nprocs 24
| 14> end
| 15>
| 16>
| 17>                          ****END OF INPUT****
 Total Charge           Charge          ....    0
 Multiplicity           Mult            ....    4
 Number of Electrons    NEL             ....   31
E(0)                                       ...   -947.947705879
E(0)                                       ...   -947.947705879
E(CORR)                                    ...     -0.581317196
E(TOT)                                     ...   -948.529023076
E(CCSD(T))                                 ...   -948.548755344

CARTESIAN COORDINATES (ANGSTROEM)
---------------------------------
  Ti     0.000000    0.000000    0.110411
  F      0.000000    0.000000    1.889589

 Multiplicity           Mult            ....    4
 Number of Electrons    NEL             ....   31
 Basis Dimension        Dim             ....  150

ORBITAL ENERGIES
----------------
                 SPIN UP ORBITALS
  NO   OCC          E(Eh)            E(eV)
   0   1.0000    -183.250576     -4986.5017
   1   1.0000     -26.213170      -713.2966
   2   1.0000     -21.416133      -582.7626
   3   1.0000     -17.787144      -484.0128
   4   1.0000     -17.784019      -483.9278
   5   1.0000     -17.784019      -483.9278
   6   1.0000      -2.911758       -79.2330
   7   1.0000      -1.877208       -51.0814
   8   1.0000      -1.877208       -51.0814
   9   1.0000      -1.817405       -49.4541
  10   1.0000      -1.471808       -40.0499
  11   1.0000      -0.608101       -16.5473
  12   1.0000      -0.583433       -15.8760
  13   1.0000      -0.583433       -15.8760
  14   1.0000      -0.375234       -10.2106
  15   1.0000      -0.375234       -10.2106
  16   1.0000      -0.243851        -6.6355
  17   0.0000       0.015020         0.4087
  18   0.0000       0.015020         0.4087
  19   0.0000       0.034114         0.9283
  20   0.0000       0.068505         1.8641
  21   0.0000       0.091451         2.4885

                 SPIN DOWN ORBITALS
  NO   OCC          E(Eh)            E(eV)
   0   1.0000    -183.249124     -4986.4622
   1   1.0000     -26.215719      -713.3660
   2   1.0000     -21.383004      -581.8611
   3   1.0000     -17.779088      -483.7936
   4   1.0000     -17.739929      -482.7280
   5   1.0000     -17.739929      -482.7280
   6   1.0000      -2.785403       -75.7947
   7   1.0000      -1.792510       -48.7767
   8   1.0000      -1.660238       -45.1774
   9   1.0000      -1.660238       -45.1774
  10   1.0000      -1.476247       -40.1707
  11   1.0000      -0.612219       -16.6593
  12   1.0000      -0.589687       -16.0462
  13   1.0000      -0.589687       -16.0462
  14   0.0000       0.008077         0.2198
  15   0.0000       0.039761         1.0819
  16   0.0000       0.039761         1.0819
  17   0.0000       0.051894         1.4121
  18   0.0000       0.105204         2.8627

E(0)                                       ...   -947.968055372
E(0)                                       ...   -947.968055372
E(CORR)                                    ...     -0.632530903
E(TOT)                                     ...   -948.600586275
E(CCSD(T))                                 ...   -948.623718724

MULLIKEN ATOMIC CHARGES AND SPIN DENSITIES
------------------------------------------
   0 Ti:    0.488997    3.047724
   1 F :   -0.488997   -0.047724
Sum of atomic charges       :   -0.0000000

LOEWDIN ATOMIC CHARGES AND SPIN DENSITIES
-----------------------------------------
   0 Ti:   -0.126958    3.022421
   1 F :    0.126958   -0.022421

  Mayer bond orders larger than 0.100000
B(  0-Ti,  1-F ) :   0.8627

FINAL SINGLE POINT ENERGY      -948.666976338510

DIPOLE MOMENT
-------------
                                X             Y             Z
Electronic contribution:      0.00000       0.00000      -1.79800
Nuclear contribution   :      0.00000       0.00000       0.66059
                        -----------------------------------------
Total Dipole Moment    :      0.00000       0.00000      -1.13740
                        -----------------------------------------
Magnitude (a.u.)       :      1.13740
Magnitude (Debye)      :      2.89105

Rotational constants in cm-1:     0.000000     0.391496     0.391496
Rotational constants in MHz :     0.000000 11736.757371 11736.757371

                             ****ORCA TERMINATED NORMALLY****
TOTAL RUN TIME: 0 days 0 hours 2 minutes 9 seconds 142 msec
