                         Program Version 4.2.0 -  RELEASE  -
|  1> #
|  2> # 09_TiCl ccsd(t)/cbs
|  3> #
|  4> ! ccsd(t) extrapolate(3/4,def2) verytightscf
|  5>
|  6> *xyz 0 4
|  7>   Ti  0.00000000000000      0.00000000000000     -0.11680209456005
|  8>   Cl  0.00000000000000      0.00000000000000      2.11680209456005
|  9> *
| 10>
| 11> %maxcore 5000
| 12> %pal
| 13> nprocs 24
| 14> end
| 15>
| 16>
| 17>                          ****END OF INPUT****
 Total Charge           Charge          ....    0
 Multiplicity           Mult            ....    4
 Number of Electrons    NEL             ....   39
E(0)                                       ...  -1307.979078552
E(0)                                       ...  -1307.979078552
E(CORR)                                    ...     -0.529898167
E(TOT)                                     ...  -1308.508976719
E(CCSD(T))                                 ...  -1308.529759427

CARTESIAN COORDINATES (ANGSTROEM)
---------------------------------
  Ti     0.000000    0.000000   -0.116802
  Cl     0.000000    0.000000    2.116802

 Multiplicity           Mult            ....    4
 Number of Electrons    NEL             ....   39
 Basis Dimension        Dim             ....  163

ORBITAL ENERGIES
----------------
                 SPIN UP ORBITALS
  NO   OCC          E(Eh)            E(eV)
   0   1.0000    -183.274813     -4987.1612
   1   1.0000    -104.783050     -2851.2918
   2   1.0000     -21.439974      -583.4114
   3   1.0000     -17.810928      -484.6600
   4   1.0000     -17.807968      -484.5794
   5   1.0000     -17.807968      -484.5794
   6   1.0000     -10.511044      -286.0200
   7   1.0000      -7.977420      -217.0766
   8   1.0000      -7.976688      -217.0567
   9   1.0000      -7.976688      -217.0567
  10   1.0000      -2.935171       -79.8701
  11   1.0000      -1.899961       -51.7006
  12   1.0000      -1.899961       -51.7006
  13   1.0000      -1.824487       -49.6468
  14   1.0000      -1.034296       -28.1446
  15   1.0000      -0.480048       -13.0628
  16   1.0000      -0.438521       -11.9328
  17   1.0000      -0.438521       -11.9328
  18   1.0000      -0.397532       -10.8174
  19   1.0000      -0.397532       -10.8174
  20   1.0000      -0.251189        -6.8352
  21   0.0000       0.013054         0.3552
  22   0.0000       0.013054         0.3552
  23   0.0000       0.027877         0.7586
  24   0.0000       0.065043         1.7699
  25   0.0000       0.081990         2.2311

                 SPIN DOWN ORBITALS
  NO   OCC          E(Eh)            E(eV)
   0   1.0000    -183.273235     -4987.1183
   1   1.0000    -104.783577     -2851.3061
   2   1.0000     -21.406160      -582.4912
   3   1.0000     -17.802337      -484.4262
   4   1.0000     -17.763043      -483.3570
   5   1.0000     -17.763043      -483.3570
   6   1.0000     -10.511507      -286.0326
   7   1.0000      -7.978048      -217.0937
   8   1.0000      -7.977775      -217.0863
   9   1.0000      -7.977775      -217.0863
  10   1.0000      -2.806686       -76.3738
  11   1.0000      -1.795499       -48.8580
  12   1.0000      -1.680671       -45.7334
  13   1.0000      -1.680671       -45.7334
  14   1.0000      -1.036806       -28.2129
  15   1.0000      -0.476259       -12.9597
  16   1.0000      -0.440947       -11.9988
  17   1.0000      -0.440947       -11.9988
  18   0.0000       0.004606         0.1253
  19   0.0000       0.039361         1.0711
  20   0.0000       0.039361         1.0711
  21   0.0000       0.050989         1.3875
  22   0.0000       0.099496         2.7074

E(0)                                       ...  -1308.007522228
E(0)                                       ...  -1308.007522228
E(CORR)                                    ...     -0.577661346
E(TOT)                                     ...  -1308.585183574
E(CCSD(T))                                 ...  -1308.609579564

MULLIKEN ATOMIC CHARGES AND SPIN DENSITIES
------------------------------------------
   0 Ti:    0.422404    3.063007
   1 Cl:   -0.422404   -0.063007
Sum of atomic charges       :    0.0000000

LOEWDIN ATOMIC CHARGES AND SPIN DENSITIES
-----------------------------------------
   0 Ti:   -0.342517    3.014301
   1 Cl:    0.342517   -0.014301

  Mayer bond orders larger than 0.100000
B(  0-Ti,  1-Cl) :   0.9585

FINAL SINGLE POINT ENERGY     -1308.651553968077

DIPOLE MOMENT
-------------
                                X             Y             Z
Electronic contribution:     -0.00000      -0.00000      -3.50976
Nuclear contribution   :      0.00000       0.00000       1.73863
                        -----------------------------------------
Total Dipole Moment    :     -0.00000      -0.00000      -1.77112
                        -----------------------------------------
Magnitude (a.u.)       :      1.77112
Magnitude (Debye)      :      4.50183

Rotational constants in cm-1:     0.000000     0.165851     0.165851
Rotational constants in MHz :     0.000000  4972.077671  4972.077671

                             ****ORCA TERMINATED NORMALLY****
TOTAL RUN TIME: 0 days 0 hours 2 minutes 42 seconds 652 msec
