                         Program Version 4.2.0 -  RELEASE  -
|  1> #
|  2> # 10_TiBr ccsd(t)/cbs
|  3> #
|  4> ! ccsd(t) extrapolate(3/4,def2) verytightscf
|  5>
|  6> *xyz 0 4
|  7>   Ti  0.00000000000000      0.00000000000000     -0.20373332414567
|  8>   Br  0.00000000000000      0.00000000000000      2.20373332414567
|  9> *
| 10>
| 11> %maxcore 5000
| 12> %pal
| 13> nprocs 24
| 14> end
| 15>
| 16>
| 17>                          ****END OF INPUT****
 Total Charge           Charge          ....    0
 Multiplicity           Mult            ....    4
 Number of Electrons    NEL             ....   57
E(0)                                       ...  -3420.884041945
E(0)                                       ...  -3420.884041945
E(CORR)                                    ...     -0.602874002
E(TOT)                                     ...  -3421.486915947
E(CCSD(T))                                 ...  -3421.508369148

CARTESIAN COORDINATES (ANGSTROEM)
---------------------------------
  Ti     0.000000    0.000000   -0.203733
  Br     0.000000    0.000000    2.203733

 Multiplicity           Mult            ....    4
 Number of Electrons    NEL             ....   57
 Basis Dimension        Dim             ....  182

ORBITAL ENERGIES
----------------
                 SPIN UP ORBITALS
  NO   OCC          E(Eh)            E(eV)
   0   1.0000    -489.978157    -13332.9835
   1   1.0000    -183.284570     -4987.4267
   2   1.0000     -65.119504     -1771.9918
   3   1.0000     -58.474049     -1591.1598
   4   1.0000     -58.473992     -1591.1582
   5   1.0000     -58.473992     -1591.1582
   6   1.0000     -21.449631      -583.6741
   7   1.0000     -17.820585      -484.9228
   8   1.0000     -17.817630      -484.8424
   9   1.0000     -17.817630      -484.8424
  10   1.0000      -9.792480      -266.4669
  11   1.0000      -7.400602      -201.3806
  12   1.0000      -7.399538      -201.3517
  13   1.0000      -7.399538      -201.3517
  14   1.0000      -3.142222       -85.5042
  15   1.0000      -3.141701       -85.4900
  16   1.0000      -3.141701       -85.4900
  17   1.0000      -3.140943       -85.4694
  18   1.0000      -3.140943       -85.4694
  19   1.0000      -2.944479       -80.1234
  20   1.0000      -1.909138       -51.9503
  21   1.0000      -1.909138       -51.9503
  22   1.0000      -1.831937       -49.8495
  23   1.0000      -0.961017       -26.1506
  24   1.0000      -0.445225       -12.1152
  25   1.0000      -0.406522       -11.0620
  26   1.0000      -0.406522       -11.0620
  27   1.0000      -0.400314       -10.8931
  28   1.0000      -0.400314       -10.8931
  29   1.0000      -0.253933        -6.9099
  30   0.0000       0.011810         0.3214
  31   0.0000       0.011810         0.3214
  32   0.0000       0.025493         0.6937
  33   0.0000       0.063969         1.7407
  34   0.0000       0.080989         2.2038

                 SPIN DOWN ORBITALS
  NO   OCC          E(Eh)            E(eV)
   0   1.0000    -489.978320    -13332.9879
   1   1.0000    -183.282928     -4987.3820
   2   1.0000     -65.119572     -1771.9936
   3   1.0000     -58.474241     -1591.1650
   4   1.0000     -58.474241     -1591.1650
   5   1.0000     -58.474110     -1591.1614
   6   1.0000     -21.415562      -582.7471
   7   1.0000     -17.811914      -484.6868
   8   1.0000     -17.772376      -483.6109
   9   1.0000     -17.772376      -483.6109
  10   1.0000      -9.792751      -266.4743
  11   1.0000      -7.400707      -201.3835
  12   1.0000      -7.400120      -201.3675
  13   1.0000      -7.400120      -201.3675
  14   1.0000      -3.142300       -85.5063
  15   1.0000      -3.141851       -85.4941
  16   1.0000      -3.141851       -85.4941
  17   1.0000      -3.141236       -85.4774
  18   1.0000      -3.141236       -85.4774
  19   1.0000      -2.815404       -76.6110
  20   1.0000      -1.803040       -49.0632
  21   1.0000      -1.688931       -45.9582
  22   1.0000      -1.688931       -45.9582
  23   1.0000      -0.962708       -26.1966
  24   1.0000      -0.439374       -11.9560
  25   1.0000      -0.402217       -10.9449
  26   1.0000      -0.402217       -10.9449
  27   0.0000       0.002915         0.0793
  28   0.0000       0.038870         1.0577
  29   0.0000       0.038870         1.0577
  30   0.0000       0.050185         1.3656
  31   0.0000       0.097326         2.6484

E(0)                                       ...  -3420.948999687
E(0)                                       ...  -3420.948999687
E(CORR)                                    ...     -0.927076389
E(TOT)                                     ...  -3421.876076076
E(CCSD(T))                                 ...  -3421.903515700

MULLIKEN ATOMIC CHARGES AND SPIN DENSITIES
------------------------------------------
   0 Ti:    0.397842    3.065791
   1 Br:   -0.397842   -0.065791
Sum of atomic charges       :   -0.0000000

LOEWDIN ATOMIC CHARGES AND SPIN DENSITIES
-----------------------------------------
   0 Ti:   -0.384240    3.021925
   1 Br:    0.384240   -0.021925

  Mayer bond orders larger than 0.100000
B(  0-Ti,  1-Br) :   0.9907

FINAL SINGLE POINT ENERGY     -3422.157047016895

DIPOLE MOMENT
-------------
                                X             Y             Z
Electronic contribution:      0.00000       0.00000       0.87909
Nuclear contribution   :      0.00000       0.00000      -2.89414
                        -----------------------------------------
Total Dipole Moment    :      0.00000       0.00000      -2.01505
                        -----------------------------------------
Magnitude (a.u.)       :      2.01505
Magnitude (Debye)      :      5.12184

Rotational constants in cm-1:     0.000000     0.097124     0.097124
Rotational constants in MHz :     0.000000  2911.693161  2911.693161

                             ****ORCA TERMINATED NORMALLY****
TOTAL RUN TIME: 0 days 0 hours 6 minutes 21 seconds 67 msec
