                         Program Version 4.2.0 -  RELEASE  -
|  1> #
|  2> # 11_TiO ccsd(t)/cbs
|  3> #
|  4> ! ccsd(t) extrapolate(3/4,def2) verytightscf
|  5>
|  6> *xyz 0 3
|  7>   Ti  0.00000000000000      0.00000000000000      0.18878211244980
|  8>   O   0.00000000000000      0.00000000000000      1.81121788755020
|  9> *
| 10>
| 11> %maxcore 5000
| 12> %pal
| 13> nprocs 24
| 14> end
| 15>
| 16>
| 17>                          ****END OF INPUT****
 Total Charge           Charge          ....    0
 Multiplicity           Mult            ....    3
 Number of Electrons    NEL             ....   30
E(0)                                       ...   -923.242297905
E(0)                                       ...   -923.242297905
E(CORR)                                    ...     -0.608359986
E(TOT)                                     ...   -923.850657891
E(CCSD(T))                                 ...   -923.885309172

CARTESIAN COORDINATES (ANGSTROEM)
---------------------------------
  Ti     0.000000    0.000000    0.188782
  O      0.000000    0.000000    1.811218

 Multiplicity           Mult            ....    3
 Number of Electrons    NEL             ....   30
 Basis Dimension        Dim             ....  150

ORBITAL ENERGIES
----------------
                 SPIN UP ORBITALS
  NO   OCC          E(Eh)            E(eV)
   0   1.0000    -183.156220     -4983.9341
   1   1.0000     -21.307941      -579.8186
   2   1.0000     -20.394703      -554.9681
   3   1.0000     -17.682259      -481.1587
   4   1.0000     -17.678147      -481.0468
   5   1.0000     -17.678147      -481.0468
   6   1.0000      -2.806082       -76.3574
   7   1.0000      -1.780747       -48.4566
   8   1.0000      -1.780747       -48.4566
   9   1.0000      -1.736845       -47.2619
  10   1.0000      -1.038944       -28.2711
  11   1.0000      -0.354184        -9.6378
  12   1.0000      -0.345514        -9.4019
  13   1.0000      -0.345514        -9.4019
  14   1.0000      -0.278048        -7.5661
  15   1.0000      -0.278048        -7.5661
  16   0.0000      -0.025432        -0.6920
  17   0.0000       0.026605         0.7239
  18   0.0000       0.026605         0.7239
  19   0.0000       0.048198         1.3115
  20   0.0000       0.082649         2.2490

                 SPIN DOWN ORBITALS
  NO   OCC          E(Eh)            E(eV)
   0   1.0000    -183.157697     -4983.9743
   1   1.0000     -21.280609      -579.0748
   2   1.0000     -20.407503      -555.3164
   3   1.0000     -17.675298      -480.9693
   4   1.0000     -17.639510      -479.9955
   5   1.0000     -17.639510      -479.9955
   6   1.0000      -2.691676       -73.2442
   7   1.0000      -1.707556       -46.4650
   8   1.0000      -1.575209       -42.8636
   9   1.0000      -1.575209       -42.8636
  10   1.0000      -1.075379       -29.2626
  11   1.0000      -0.383750       -10.4424
  12   1.0000      -0.373407       -10.1609
  13   1.0000      -0.373407       -10.1609
  14   0.0000      -0.017532        -0.4771
  15   0.0000       0.030787         0.8378
  16   0.0000       0.030787         0.8378
  17   0.0000       0.055093         1.4992
  18   0.0000       0.085755         2.3335

E(0)                                       ...   -923.261259203
E(0)                                       ...   -923.261259203
E(CORR)                                    ...     -0.653876263
E(TOT)                                     ...   -923.915135466
E(CCSD(T))                                 ...   -923.953334894

MULLIKEN ATOMIC CHARGES AND SPIN DENSITIES
------------------------------------------
   0 Ti:    0.553886    2.172787
   1 O :   -0.553886   -0.172787
Sum of atomic charges       :   -0.0000000

LOEWDIN ATOMIC CHARGES AND SPIN DENSITIES
-----------------------------------------
   0 Ti:   -0.108515    2.131309
   1 O :    0.108515   -0.131309

  Mayer bond orders larger than 0.100000
B(  0-Ti,  1-O ) :   2.0205

FINAL SINGLE POINT ENERGY      -923.992290589582

DIPOLE MOMENT
-------------
                                X             Y             Z
Electronic contribution:     -0.00000       0.00000      -4.03862
Nuclear contribution   :      0.00000       0.00000       1.49807
                        -----------------------------------------
Total Dipole Moment    :     -0.00000       0.00000      -2.54055
                        -----------------------------------------
Magnitude (a.u.)       :      2.54055
Magnitude (Debye)      :      6.45756

Rotational constants in cm-1:     0.000000     0.533983     0.533983
Rotational constants in MHz :     0.000000 16008.413204 16008.413204

                             ****ORCA TERMINATED NORMALLY****
TOTAL RUN TIME: 0 days 0 hours 1 minutes 54 seconds 478 msec
