                         Program Version 4.2.0 -  RELEASE  -
|  1> #
|  2> # 12_TiS ccsd(t)/cbs
|  3> #
|  4> ! ccsd(t) extrapolate(3/4,def2) verytightscf
|  5>
|  6> *xyz 0 3
|  7>   Ti  0.00000000000000      0.00000000000000     -0.04354772803913
|  8>   S   0.00000000000000      0.00000000000000      2.04354772803913
|  9> *
| 10>
| 11> %maxcore 5000
| 12> %pal
| 13> nprocs 24
| 14> end
| 15>
| 16>
| 17>                          ****END OF INPUT****
 Total Charge           Charge          ....    0
 Multiplicity           Mult            ....    3
 Number of Electrons    NEL             ....   38
E(0)                                       ...  -1245.965532917
E(0)                                       ...  -1245.965532917
E(CORR)                                    ...     -0.531807123
E(TOT)                                     ...  -1246.497340040
E(CCSD(T))                                 ...  -1246.529619864

CARTESIAN COORDINATES (ANGSTROEM)
---------------------------------
  Ti     0.000000    0.000000   -0.043548
  S      0.000000    0.000000    2.043548

 Multiplicity           Mult            ....    3
 Number of Electrons    NEL             ....   38
 Basis Dimension        Dim             ....  163

ORBITAL ENERGIES
----------------
                 SPIN UP ORBITALS
  NO   OCC          E(Eh)            E(eV)
   0   1.0000    -183.291484     -4987.6148
   1   1.0000     -91.882113     -2500.2394
   2   1.0000     -21.457813      -583.8968
   3   1.0000     -17.826362      -485.0800
   4   1.0000     -17.826362      -485.0800
   5   1.0000     -17.824447      -485.0279
   6   1.0000      -8.886751      -241.8208
   7   1.0000      -6.566121      -178.6732
   8   1.0000      -6.566121      -178.6732
   9   1.0000      -6.559018      -178.4799
  10   1.0000      -2.945457       -80.1500
  11   1.0000      -1.883916       -51.2640
  12   1.0000      -1.883916       -51.2640
  13   1.0000      -1.882933       -51.2372
  14   1.0000      -0.804994       -21.9050
  15   1.0000      -0.456457       -12.4208
  16   1.0000      -0.417622       -11.3641
  17   1.0000      -0.330957        -9.0058
  18   1.0000      -0.330957        -9.0058
  19   1.0000      -0.269293        -7.3278
  20   0.0000      -0.015488        -0.4214
  21   0.0000       0.012774         0.3476
  22   0.0000       0.012774         0.3476
  23   0.0000       0.058005         1.5784
  24   0.0000       0.067063         1.8249

                 SPIN DOWN ORBITALS
  NO   OCC          E(Eh)            E(eV)
   0   1.0000    -183.290600     -4987.5908
   1   1.0000     -91.888998     -2500.4268
   2   1.0000     -21.427265      -583.0655
   3   1.0000     -17.800593      -484.3788
   4   1.0000     -17.795044      -484.2278
   5   1.0000     -17.795044      -484.2278
   6   1.0000      -8.893497      -242.0044
   7   1.0000      -6.583115      -179.1357
   8   1.0000      -6.572657      -178.8511
   9   1.0000      -6.572657      -178.8511
  10   1.0000      -2.828843       -76.9767
  11   1.0000      -1.759312       -47.8733
  12   1.0000      -1.736331       -47.2480
  13   1.0000      -1.736331       -47.2480
  14   1.0000      -0.863582       -23.4993
  15   1.0000      -0.402970       -10.9654
  16   1.0000      -0.346918        -9.4401
  17   1.0000      -0.346918        -9.4401
  18   0.0000      -0.010203        -0.2776
  19   0.0000       0.034357         0.9349
  20   0.0000       0.034357         0.9349
  21   0.0000       0.050218         1.3665
  22   0.0000       0.086939         2.3657

E(0)                                       ...  -1245.992560153
E(0)                                       ...  -1245.992560153
E(CORR)                                    ...     -0.573650622
E(TOT)                                     ...  -1246.566210776
E(CCSD(T))                                 ...  -1246.602191425

MULLIKEN ATOMIC CHARGES AND SPIN DENSITIES
------------------------------------------
   0 Ti:    0.353113    2.295337
   1 S :   -0.353113   -0.295337
Sum of atomic charges       :   -0.0000000

LOEWDIN ATOMIC CHARGES AND SPIN DENSITIES
-----------------------------------------
   0 Ti:   -0.389875    2.165986
   1 S :    0.389875   -0.165986

  Mayer bond orders larger than 0.100000
B(  0-Ti,  1-S ) :   2.2263

FINAL SINGLE POINT ENERGY     -1246.639650632081

DIPOLE MOMENT
-------------
                                X             Y             Z
Electronic contribution:     -0.00000      -0.00000      -5.09123
Nuclear contribution   :      0.00000       0.00000       3.01278
                        -----------------------------------------
Total Dipole Moment    :     -0.00000      -0.00000      -2.07845
                        -----------------------------------------
Magnitude (a.u.)       :      2.07845
Magnitude (Debye)      :      5.28299

Rotational constants in cm-1:     0.000000     0.201505     0.201505
Rotational constants in MHz :     0.000000  6040.970749  6040.970749

                             ****ORCA TERMINATED NORMALLY****
TOTAL RUN TIME: 0 days 0 hours 2 minutes 39 seconds 400 msec
