                         Program Version 4.2.0 -  RELEASE  -
|  1> #
|  2> # 13_VH ccsd(t)/cbs
|  3> #
|  4> ! ccsd(t) extrapolate(3/4,def2) verytightscf
|  5>
|  6> *xyz 0 5
|  7>   V   0.00000000000000      0.00000000000000      0.15541431667182
|  8>   H   0.00000000000000      0.00000000000000      1.84458568332818
|  9> *
| 10>
| 11> %maxcore 5000
| 12> %pal
| 13> nprocs 24
| 14> end
| 15>
| 16>
| 17>                          ****END OF INPUT****
 Total Charge           Charge          ....    0
 Multiplicity           Mult            ....    5
 Number of Electrons    NEL             ....   24
E(0)                                       ...   -943.395686772
E(0)                                       ...   -943.395686772
E(CORR)                                    ...     -0.408492924
E(TOT)                                     ...   -943.804179696
E(CCSD(T))                                 ...   -943.816101824

CARTESIAN COORDINATES (ANGSTROEM)
---------------------------------
  V      0.000000    0.000000    0.155414
  H      0.000000    0.000000    1.844586

 Multiplicity           Mult            ....    5
 Number of Electrons    NEL             ....   24
 Basis Dimension        Dim             ....  123

ORBITAL ENERGIES
----------------
                 SPIN UP ORBITALS
  NO   OCC          E(Eh)            E(eV)
   0   1.0000    -201.306004     -5477.8149
   1   1.0000     -23.686530      -644.5433
   2   1.0000     -19.840368      -539.8839
   3   1.0000     -19.837943      -539.8179
   4   1.0000     -19.837943      -539.8179
   5   1.0000      -3.098098       -84.3035
   6   1.0000      -1.995799       -54.3085
   7   1.0000      -1.995799       -54.3085
   8   1.0000      -1.952169       -53.1212
   9   1.0000      -0.322764        -8.7828
  10   1.0000      -0.322764        -8.7828
  11   1.0000      -0.319159        -8.6848
  12   1.0000      -0.289885        -7.8882
  13   1.0000      -0.289885        -7.8882
  14   0.0000      -0.003308        -0.0900
  15   0.0000       0.036229         0.9859
  16   0.0000       0.036229         0.9859
  17   0.0000       0.069579         1.8933
  18   0.0000       0.095968         2.6114

                 SPIN DOWN ORBITALS
  NO   OCC          E(Eh)            E(eV)
   0   1.0000    -201.306789     -5477.8362
   1   1.0000     -23.622941      -642.8129
   2   1.0000     -19.789103      -538.4889
   3   1.0000     -19.767599      -537.9037
   4   1.0000     -19.767599      -537.9037
   5   1.0000      -2.857148       -77.7470
   6   1.0000      -1.718140       -46.7530
   7   1.0000      -1.662084       -45.2276
   8   1.0000      -1.662084       -45.2276
   9   1.0000      -0.323452        -8.8016
  10   0.0000       0.009139         0.2487
  11   0.0000       0.041402         1.1266
  12   0.0000       0.041402         1.1266
  13   0.0000       0.072101         1.9620
  14   0.0000       0.116115         3.1596

E(0)                                       ...   -943.413684279
E(0)                                       ...   -943.413684279
E(CORR)                                    ...     -0.433375285
E(TOT)                                     ...   -943.847059564
E(CCSD(T))                                 ...   -943.861055729

MULLIKEN ATOMIC CHARGES AND SPIN DENSITIES
------------------------------------------
   0 V :    0.311987    4.093162
   1 H :   -0.311987   -0.093162
Sum of atomic charges       :    0.0000000

LOEWDIN ATOMIC CHARGES AND SPIN DENSITIES
-----------------------------------------
   0 V :    0.221672    3.992109
   1 H :   -0.221672    0.007891

  Mayer bond orders larger than 0.100000
B(  0-V ,  1-H ) :   0.8418

FINAL SINGLE POINT ENERGY      -943.883502370060

DIPOLE MOMENT
-------------
                                X             Y             Z
Electronic contribution:     -0.00000      -0.00000      -3.40392
Nuclear contribution   :      0.00000       0.00000       1.70553
                        -----------------------------------------
Total Dipole Moment    :     -0.00000      -0.00000      -1.69839
                        -----------------------------------------
Magnitude (a.u.)       :      1.69839
Magnitude (Debye)      :      4.31696

Rotational constants in cm-1:     0.000000     5.977214     5.977214
Rotational constants in MHz :     0.000000 179192.381350 179192.381350

                             ****ORCA TERMINATED NORMALLY****
TOTAL RUN TIME: 0 days 0 hours 0 minutes 57 seconds 212 msec
