                         Program Version 4.2.0 -  RELEASE  -
|  1> #
|  2> # 14_VF ccsd(t)/cbs
|  3> #
|  4> ! ccsd(t) extrapolate(3/4,def2) verytightscf
|  5>
|  6> *xyz 0 5
|  7>   V   0.00000000000000      0.00000000000000      0.09137228252025
|  8>   F   0.00000000000000      0.00000000000000      1.90862771747975
|  9> *
| 10>
| 11> %maxcore 5000
| 12> %pal
| 13> nprocs 24
| 14> end
| 15>
| 16>
| 17>                          ****END OF INPUT****
 Total Charge           Charge          ....    0
 Multiplicity           Mult            ....    5
 Number of Electrons    NEL             ....   32
E(0)                                       ...  -1042.434597581
E(0)                                       ...  -1042.434597581
E(CORR)                                    ...     -0.621846677
E(TOT)                                     ...  -1043.056444258
E(CCSD(T))                                 ...  -1043.075618868

CARTESIAN COORDINATES (ANGSTROEM)
---------------------------------
  V      0.000000    0.000000    0.091372
  F      0.000000    0.000000    1.908628

 Multiplicity           Mult            ....    5
 Number of Electrons    NEL             ....   32
 Basis Dimension        Dim             ....  150

ORBITAL ENERGIES
----------------
                 SPIN UP ORBITALS
  NO   OCC          E(Eh)            E(eV)
   0   1.0000    -201.488957     -5482.7933
   1   1.0000     -26.194339      -712.7842
   2   1.0000     -23.889853      -650.0759
   3   1.0000     -20.038784      -545.2830
   4   1.0000     -20.038697      -545.2807
   5   1.0000     -20.037866      -545.2581
   6   1.0000      -3.275011       -89.1176
   7   1.0000      -2.152843       -58.5818
   8   1.0000      -2.150258       -58.5115
   9   1.0000      -2.115833       -57.5748
  10   1.0000      -1.467371       -39.9292
  11   1.0000      -0.609098       -16.5744
  12   1.0000      -0.599565       -16.3150
  13   1.0000      -0.561265       -15.2728
  14   1.0000      -0.480350       -13.0710
  15   1.0000      -0.478072       -13.0090
  16   1.0000      -0.467619       -12.7246
  17   1.0000      -0.261462        -7.1147
  18   0.0000       0.016637         0.4527
  19   0.0000       0.020340         0.5535
  20   0.0000       0.042965         1.1691
  21   0.0000       0.070954         1.9308
  22   0.0000       0.099055         2.6954

                 SPIN DOWN ORBITALS
  NO   OCC          E(Eh)            E(eV)
   0   1.0000    -201.486711     -5482.7321
   1   1.0000     -26.193745      -712.7680
   2   1.0000     -23.828613      -648.4095
   3   1.0000     -19.991689      -544.0015
   4   1.0000     -19.971988      -543.4654
   5   1.0000     -19.970974      -543.4378
   6   1.0000      -3.060937       -83.2923
   7   1.0000      -1.922802       -52.3221
   8   1.0000      -1.863970       -50.7212
   9   1.0000      -1.861654       -50.6582
  10   1.0000      -1.461814       -39.7780
  11   1.0000      -0.590254       -16.0616
  12   1.0000      -0.565450       -15.3867
  13   1.0000      -0.561542       -15.2803
  14   0.0000       0.006873         0.1870
  15   0.0000       0.041553         1.1307
  16   0.0000       0.042400         1.1538
  17   0.0000       0.058116         1.5814
  18   0.0000       0.110827         3.0157

E(0)                                       ...  -1042.457468899
E(0)                                       ...  -1042.457468899
E(CORR)                                    ...     -0.669032303
E(TOT)                                     ...  -1043.126501202
E(CCSD(T))                                 ...  -1043.149038578

MULLIKEN ATOMIC CHARGES AND SPIN DENSITIES
------------------------------------------
   0 V :    0.532134    4.026742
   1 F :   -0.532134   -0.026742
Sum of atomic charges       :   -0.0000000

LOEWDIN ATOMIC CHARGES AND SPIN DENSITIES
-----------------------------------------
   0 V :    0.065306    3.991088
   1 F :   -0.065306    0.008912

  Mayer bond orders larger than 0.100000
B(  0-V ,  1-F ) :   0.7857

FINAL SINGLE POINT ENERGY     -1043.189632068967

DIPOLE MOMENT
-------------
                                X             Y             Z
Electronic contribution:      0.00000      -0.00000      -2.40138
Nuclear contribution   :      0.00000       0.00000       1.05599
                        -----------------------------------------
Total Dipole Moment    :      0.00000      -0.00000      -1.34539
                        -----------------------------------------
Magnitude (a.u.)       :      1.34539
Magnitude (Debye)      :      3.41971

Rotational constants in cm-1:     0.000000     0.368902     0.368902
Rotational constants in MHz :     0.000000 11059.411965 11059.411965

                             ****ORCA TERMINATED NORMALLY****
TOTAL RUN TIME: 0 days 0 hours 2 minutes 48 seconds 732 msec
