                         Program Version 4.2.0 -  RELEASE  -
|  1> #
|  2> # 15_VCl ccsd(t)/cbs
|  3> #
|  4> ! ccsd(t) extrapolate(3/4,def2) verytightscf
|  5>
|  6> *xyz 0 5
|  7>   V   0.00000000000000      0.00000000000000     -0.10591307408469
|  8>   Cl  0.00000000000000      0.00000000000000      2.10591307408469
|  9> *
| 10>
| 11> %maxcore 5000
| 12> %pal
| 13> nprocs 24
| 14> end
| 15>
| 16>
| 17>                          ****END OF INPUT****
 Total Charge           Charge          ....    0
 Multiplicity           Mult            ....    5
 Number of Electrons    NEL             ....   40
E(0)                                       ...  -1402.476369263
E(0)                                       ...  -1402.476369263
E(CORR)                                    ...     -0.569826017
E(TOT)                                     ...  -1403.046195280
E(CCSD(T))                                 ...  -1403.065889506

CARTESIAN COORDINATES (ANGSTROEM)
---------------------------------
  V      0.000000    0.000000   -0.105913
  Cl     0.000000    0.000000    2.105913

 Multiplicity           Mult            ....    5
 Number of Electrons    NEL             ....   40
 Basis Dimension        Dim             ....  163

ORBITAL ENERGIES
----------------
                 SPIN UP ORBITALS
  NO   OCC          E(Eh)            E(eV)
   0   1.0000    -201.510787     -5483.3873
   1   1.0000    -104.780611     -2851.2254
   2   1.0000     -23.912058      -650.6802
   3   1.0000     -20.060829      -545.8829
   4   1.0000     -20.060721      -545.8800
   5   1.0000     -20.060329      -545.8693
   6   1.0000     -10.508429      -285.9489
   7   1.0000      -7.974997      -217.0107
   8   1.0000      -7.974686      -217.0022
   9   1.0000      -7.973865      -216.9799
  10   1.0000      -3.297925       -89.7411
  11   1.0000      -2.170084       -59.0510
  12   1.0000      -2.166209       -58.9455
  13   1.0000      -2.147473       -58.4357
  14   1.0000      -1.035843       -28.1867
  15   1.0000      -0.548211       -14.9176
  16   1.0000      -0.544383       -14.8134
  17   1.0000      -0.512296       -13.9403
  18   1.0000      -0.448412       -12.2019
  19   1.0000      -0.437149       -11.8954
  20   1.0000      -0.419790       -11.4231
  21   1.0000      -0.263748        -7.1769
  22   0.0000       0.015783         0.4295
  23   0.0000       0.018503         0.5035
  24   0.0000       0.042719         1.1624
  25   0.0000       0.068591         1.8665
  26   0.0000       0.091473         2.4891

                 SPIN DOWN ORBITALS
  NO   OCC          E(Eh)            E(eV)
   0   1.0000    -201.508463     -5483.3241
   1   1.0000    -104.780552     -2851.2238
   2   1.0000     -23.850524      -649.0057
   3   1.0000     -20.007734      -544.4381
   4   1.0000     -19.997223      -544.1521
   5   1.0000     -19.995025      -544.0923
   6   1.0000     -10.508294      -285.9452
   7   1.0000      -7.974831      -217.0062
   8   1.0000      -7.974793      -217.0052
   9   1.0000      -7.973876      -216.9802
  10   1.0000      -3.082783       -83.8868
  11   1.0000      -1.923397       -52.3383
  12   1.0000      -1.894678       -51.5568
  13   1.0000      -1.888582       -51.3909
  14   1.0000      -1.032969       -28.1085
  15   1.0000      -0.473517       -12.8851
  16   1.0000      -0.438439       -11.9305
  17   1.0000      -0.436016       -11.8646
  18   0.0000       0.005125         0.1395
  19   0.0000       0.041357         1.1254
  20   0.0000       0.042154         1.1471
  21   0.0000       0.056334         1.5329
  22   0.0000       0.107968         2.9380

E(0)                                       ...  -1402.507311264
E(0)                                       ...  -1402.507311264
E(CORR)                                    ...     -0.613267906
E(TOT)                                     ...  -1403.120579170
E(CCSD(T))                                 ...  -1403.143907880

MULLIKEN ATOMIC CHARGES AND SPIN DENSITIES
------------------------------------------
   0 V :    0.456925    4.049539
   1 Cl:   -0.456925   -0.049539
Sum of atomic charges       :    0.0000000

LOEWDIN ATOMIC CHARGES AND SPIN DENSITIES
-----------------------------------------
   0 V :   -0.165035    3.987454
   1 Cl:    0.165035    0.012546

  Mayer bond orders larger than 0.100000
B(  0-V ,  1-Cl) :   0.9326

FINAL SINGLE POINT ENERGY     -1403.183041151348

DIPOLE MOMENT
-------------
                                X             Y             Z
Electronic contribution:      0.00000       0.00000      -4.45146
Nuclear contribution   :      0.00000       0.00000       2.44617
                        -----------------------------------------
Total Dipole Moment    :      0.00000       0.00000      -2.00529
                        -----------------------------------------
Magnitude (a.u.)       :      2.00529
Magnitude (Debye)      :      5.09705

Rotational constants in cm-1:     0.000000     0.164840     0.164840
Rotational constants in MHz :     0.000000  4941.766851  4941.766851

                             ****ORCA TERMINATED NORMALLY****
TOTAL RUN TIME: 0 days 0 hours 3 minutes 46 seconds 697 msec
