                         Program Version 4.2.0 -  RELEASE  -
|  1> #
|  2> # 16_VBr ccsd(t)/cbs
|  3> #
|  4> ! ccsd(t) extrapolate(3/4,def2) verytightscf
|  5>
|  6> *xyz 0 5
|  7>   V   0.00000000000000      0.00000000000000     -0.18045152200616
|  8>   Br  0.00000000000000      0.00000000000000      2.18045152200616
|  9> *
| 10>
| 11> %maxcore 5000
| 12> %pal
| 13> nprocs 24
| 14> end
| 15>
| 16>
| 17>                          ****END OF INPUT****
 Total Charge           Charge          ....    0
 Multiplicity           Mult            ....    5
 Number of Electrons    NEL             ....   58
E(0)                                       ...  -3515.383580300
E(0)                                       ...  -3515.383580300
E(CORR)                                    ...     -0.642402526
E(TOT)                                     ...  -3516.025982826
E(CCSD(T))                                 ...  -3516.046096892

CARTESIAN COORDINATES (ANGSTROEM)
---------------------------------
  V      0.000000    0.000000   -0.180452
  Br     0.000000    0.000000    2.180452

 Multiplicity           Mult            ....    5
 Number of Electrons    NEL             ....   58
 Basis Dimension        Dim             ....  182

ORBITAL ENERGIES
----------------
                 SPIN UP ORBITALS
  NO   OCC          E(Eh)            E(eV)
   0   1.0000    -489.978265    -13332.9864
   1   1.0000    -201.518710     -5483.6029
   2   1.0000     -65.119581     -1771.9939
   3   1.0000     -58.474180     -1591.1633
   4   1.0000     -58.474169     -1591.1630
   5   1.0000     -58.474030     -1591.1592
   6   1.0000     -23.919952      -650.8950
   7   1.0000     -20.068667      -546.0962
   8   1.0000     -20.068598      -546.0943
   9   1.0000     -20.068281      -546.0857
  10   1.0000      -9.792715      -266.4733
  11   1.0000      -7.400930      -201.3895
  12   1.0000      -7.399882      -201.3610
  13   1.0000      -7.399687      -201.3557
  14   1.0000      -3.305814       -89.9558
  15   1.0000      -3.142475       -85.5111
  16   1.0000      -3.142039       -85.4992
  17   1.0000      -3.141786       -85.4924
  18   1.0000      -3.141042       -85.4721
  19   1.0000      -3.141022       -85.4715
  20   1.0000      -2.176541       -59.2267
  21   1.0000      -2.172035       -59.1041
  22   1.0000      -2.157970       -58.7214
  23   1.0000      -0.965194       -26.2643
  24   1.0000      -0.548811       -14.9339
  25   1.0000      -0.541567       -14.7368
  26   1.0000      -0.522888       -14.2285
  27   1.0000      -0.429769       -11.6946
  28   1.0000      -0.402455       -10.9513
  29   1.0000      -0.390736       -10.6325
  30   1.0000      -0.264287        -7.1916
  31   0.0000       0.014906         0.4056
  32   0.0000       0.017240         0.4691
  33   0.0000       0.042547         1.1578
  34   0.0000       0.067761         1.8439
  35   0.0000       0.089045         2.4230

                 SPIN DOWN ORBITALS
  NO   OCC          E(Eh)            E(eV)
   0   1.0000    -489.978241    -13332.9858
   1   1.0000    -201.516354     -5483.5388
   2   1.0000     -65.119523     -1771.9923
   3   1.0000     -58.474278     -1591.1660
   4   1.0000     -58.474043     -1591.1596
   5   1.0000     -58.474001     -1591.1585
   6   1.0000     -23.858235      -649.2156
   7   1.0000     -20.013788      -544.6029
   8   1.0000     -20.005869      -544.3874
   9   1.0000     -20.003410      -544.3205
  10   1.0000      -9.792613      -266.4705
  11   1.0000      -7.400682      -201.3828
  12   1.0000      -7.400270      -201.3716
  13   1.0000      -7.399463      -201.3496
  14   1.0000      -3.142444       -85.5102
  15   1.0000      -3.142104       -85.5010
  16   1.0000      -3.141558       -85.4862
  17   1.0000      -3.141068       -85.4728
  18   1.0000      -3.140989       -85.4707
  19   1.0000      -3.090117       -84.0863
  20   1.0000      -1.925467       -52.3946
  21   1.0000      -1.904390       -51.8211
  22   1.0000      -1.897607       -51.6365
  23   1.0000      -0.962421       -26.1888
  24   1.0000      -0.439922       -11.9709
  25   1.0000      -0.403239       -10.9727
  26   1.0000      -0.401230       -10.9180
  27   0.0000       0.004084         0.1111
  28   0.0000       0.041000         1.1157
  29   0.0000       0.041726         1.1354
  30   0.0000       0.055887         1.5208
  31   0.0000       0.106762         2.9051

E(0)                                       ...  -3515.450944020
E(0)                                       ...  -3515.450944020
E(CORR)                                    ...     -0.962262970
E(TOT)                                     ...  -3516.413206990
E(CCSD(T))                                 ...  -3516.439392951

MULLIKEN ATOMIC CHARGES AND SPIN DENSITIES
------------------------------------------
   0 V :    0.424189    4.063299
   1 Br:   -0.424189   -0.063299
Sum of atomic charges       :   -0.0000000

LOEWDIN ATOMIC CHARGES AND SPIN DENSITIES
-----------------------------------------
   0 V :   -0.244023    4.004940
   1 Br:    0.244023   -0.004940

  Mayer bond orders larger than 0.100000
B(  0-V ,  1-Br) :   0.9932

FINAL SINGLE POINT ENERGY     -3516.690102724994

DIPOLE MOMENT
-------------
                                X             Y             Z
Electronic contribution:      0.00000      -0.00000      -0.42545
Nuclear contribution   :      0.00000       0.00000      -1.86860
                        -----------------------------------------
Total Dipole Moment    :      0.00000      -0.00000      -2.29405
                        -----------------------------------------
Magnitude (a.u.)       :      2.29405
Magnitude (Debye)      :      5.83101

Rotational constants in cm-1:     0.000000     0.097224     0.097224
Rotational constants in MHz :     0.000000  2914.715129  2914.715129

                             ****ORCA TERMINATED NORMALLY****
TOTAL RUN TIME: 0 days 0 hours 9 minutes 16 seconds 584 msec
