                         Program Version 4.2.0 -  RELEASE  -
|  1> #
|  2> # 17_VO ccsd(t)/cbs
|  3> #
|  4> ! ccsd(t) extrapolate(3/4,def2) verytightscf
|  5>
|  6> *xyz 0 4
|  7>   V   0.00000000000000      0.00000000000000      0.20415600493149
|  8>   O   0.00000000000000      0.00000000000000      1.79584399506851
|  9> *
| 10>
| 11> %maxcore 5000
| 12> %pal
| 13> nprocs 24
| 14> end
| 15>
| 16>
| 17>                          ****END OF INPUT****
 Total Charge           Charge          ....    0
 Multiplicity           Mult            ....    4
 Number of Electrons    NEL             ....   31
E(0)                                       ...  -1017.756426672
E(0)                                       ...  -1017.756426672
E(CORR)                                    ...     -0.662217220
E(TOT)                                     ...  -1018.418643892
E(CCSD(T))                                 ...  -1018.456583195

CARTESIAN COORDINATES (ANGSTROEM)
---------------------------------
  V      0.000000    0.000000    0.204156
  O      0.000000    0.000000    1.795844

 Multiplicity           Mult            ....    4
 Number of Electrons    NEL             ....   31
 Basis Dimension        Dim             ....  150

ORBITAL ENERGIES
----------------
                 SPIN UP ORBITALS
  NO   OCC          E(Eh)            E(eV)
   0   1.0000    -201.500564     -5483.1091
   1   1.0000     -23.901846      -650.4023
   2   1.0000     -20.532101      -558.7069
   3   1.0000     -20.049638      -545.5784
   4   1.0000     -20.049638      -545.5784
   5   1.0000     -20.049435      -545.5729
   6   1.0000      -3.272718       -89.0552
   7   1.0000      -2.149545       -58.4921
   8   1.0000      -2.149545       -58.4921
   9   1.0000      -2.115716       -57.5716
  10   1.0000      -1.145381       -31.1674
  11   1.0000      -0.477298       -12.9879
  12   1.0000      -0.474817       -12.9204
  13   1.0000      -0.474817       -12.9204
  14   1.0000      -0.470410       -12.8005
  15   1.0000      -0.470410       -12.8005
  16   1.0000      -0.259935        -7.0732
  17   0.0000       0.018752         0.5103
  18   0.0000       0.018752         0.5103
  19   0.0000       0.043707         1.1893
  20   0.0000       0.064987         1.7684
  21   0.0000       0.087530         2.3818

                 SPIN DOWN ORBITALS
  NO   OCC          E(Eh)            E(eV)
   0   1.0000    -201.499975     -5483.0931
   1   1.0000     -23.847661      -648.9279
   2   1.0000     -20.569306      -559.7193
   3   1.0000     -20.018380      -544.7278
   4   1.0000     -19.986029      -543.8475
   5   1.0000     -19.986029      -543.8475
   6   1.0000      -3.082011       -83.8658
   7   1.0000      -1.985116       -54.0178
   8   1.0000      -1.870308       -50.8937
   9   1.0000      -1.870308       -50.8937
  10   1.0000      -1.266366       -34.4596
  11   1.0000      -0.599184       -16.3046
  12   1.0000      -0.530629       -14.4391
  13   1.0000      -0.530629       -14.4391
  14   0.0000       0.009629         0.2620
  15   0.0000       0.043909         1.1948
  16   0.0000       0.043909         1.1948
  17   0.0000       0.058503         1.5920
  18   0.0000       0.111110         3.0235

E(0)                                       ...  -1017.777378765
E(0)                                       ...  -1017.777378765
E(CORR)                                    ...     -0.701762140
E(TOT)                                     ...  -1018.479140906
E(CCSD(T))                                 ...  -1018.520758872

MULLIKEN ATOMIC CHARGES AND SPIN DENSITIES
------------------------------------------
   0 V :    0.425370    3.327362
   1 O :   -0.425370   -0.327362
Sum of atomic charges       :   -0.0000000

LOEWDIN ATOMIC CHARGES AND SPIN DENSITIES
-----------------------------------------
   0 V :   -0.114665    3.220221
   1 O :    0.114665   -0.220221

  Mayer bond orders larger than 0.100000
B(  0-V ,  1-O ) :   2.2275

FINAL SINGLE POINT ENERGY     -1018.555662230797

DIPOLE MOMENT
-------------
                                X             Y             Z
Electronic contribution:      0.00000       0.00000      -3.02153
Nuclear contribution   :      0.00000       0.00000       1.77684
                        -----------------------------------------
Total Dipole Moment    :      0.00000       0.00000      -1.24469
                        -----------------------------------------
Magnitude (a.u.)       :      1.24469
Magnitude (Debye)      :      3.16376

Rotational constants in cm-1:     0.000000     0.546523     0.546523
Rotational constants in MHz :     0.000000 16384.348098 16384.348098

                             ****ORCA TERMINATED NORMALLY****
TOTAL RUN TIME: 0 days 0 hours 2 minutes 1 seconds 855 msec
