                         Program Version 4.2.0 -  RELEASE  -
|  1> #
|  2> # 18_VS ccsd(t)/cbs
|  3> #
|  4> ! ccsd(t) extrapolate(3/4,def2) verytightscf
|  5>
|  6> *xyz 0 4
|  7>   V   0.00000000000000      0.00000000000000     -0.02784157502378
|  8>   S   0.00000000000000      0.00000000000000      2.02784157502377
|  9> *
| 10>
| 11> %maxcore 5000
| 12> %pal
| 13> nprocs 24
| 14> end
| 15>
| 16>
| 17>                          ****END OF INPUT****
 Total Charge           Charge          ....    0
 Multiplicity           Mult            ....    4
 Number of Electrons    NEL             ....   39
E(0)                                       ...  -1340.425691665
E(0)                                       ...  -1340.425691665
E(CORR)                                    ...     -0.589859076
E(TOT)                                     ...  -1341.015550741
E(CCSD(T))                                 ...  -1341.051598195

CARTESIAN COORDINATES (ANGSTROEM)
---------------------------------
  V      0.000000    0.000000   -0.027842
  S      0.000000    0.000000    2.027842

 Multiplicity           Mult            ....    4
 Number of Electrons    NEL             ....   39
 Basis Dimension        Dim             ....  163

ORBITAL ENERGIES
----------------
                 SPIN UP ORBITALS
  NO   OCC          E(Eh)            E(eV)
   0   1.0000    -201.503151     -5483.1795
   1   1.0000     -91.885442     -2500.3300
   2   1.0000     -23.902556      -650.4216
   3   1.0000     -20.050809      -545.6103
   4   1.0000     -20.050809      -545.6103
   5   1.0000     -20.049610      -545.5776
   6   1.0000      -8.890268      -241.9165
   7   1.0000      -6.568983      -178.7511
   8   1.0000      -6.568983      -178.7511
   9   1.0000      -6.562069      -178.5630
  10   1.0000      -3.280674       -89.2717
  11   1.0000      -2.156223       -58.6738
  12   1.0000      -2.156223       -58.6738
  13   1.0000      -2.116741       -57.5995
  14   1.0000      -0.808945       -22.0125
  15   1.0000      -0.507006       -13.7963
  16   1.0000      -0.478747       -13.0274
  17   1.0000      -0.478747       -13.0274
  18   1.0000      -0.332156        -9.0384
  19   1.0000      -0.332156        -9.0384
  20   1.0000      -0.278792        -7.5863
  21   0.0000      -0.024973        -0.6796
  22   0.0000       0.018660         0.5078
  23   0.0000       0.018660         0.5078
  24   0.0000       0.059886         1.6296
  25   0.0000       0.073694         2.0053

                 SPIN DOWN ORBITALS
  NO   OCC          E(Eh)            E(eV)
   0   1.0000    -201.501937     -5483.1465
   1   1.0000     -91.893511     -2500.5496
   2   1.0000     -23.844649      -648.8459
   3   1.0000     -20.011842      -544.5499
   4   1.0000     -19.985106      -543.8224
   5   1.0000     -19.985106      -543.8224
   6   1.0000      -8.898183      -242.1319
   7   1.0000      -6.588315      -179.2772
   8   1.0000      -6.577664      -178.9873
   9   1.0000      -6.577664      -178.9873
  10   1.0000      -3.076643       -83.7197
  11   1.0000      -1.948740       -53.0279
  12   1.0000      -1.870641       -50.9027
  13   1.0000      -1.870641       -50.9027
  14   1.0000      -0.874704       -23.8019
  15   1.0000      -0.413683       -11.2569
  16   1.0000      -0.350715        -9.5434
  17   1.0000      -0.350715        -9.5434
  18   0.0000      -0.010490        -0.2854
  19   0.0000       0.039360         1.0710
  20   0.0000       0.039360         1.0710
  21   0.0000       0.056535         1.5384
  22   0.0000       0.093210         2.5364

E(0)                                       ...  -1340.454676017
E(0)                                       ...  -1340.454676017
E(CORR)                                    ...     -0.628047831
E(TOT)                                     ...  -1341.082723848
E(CCSD(T))                                 ...  -1341.122465432

MULLIKEN ATOMIC CHARGES AND SPIN DENSITIES
------------------------------------------
   0 V :    0.329584    3.476640
   1 S :   -0.329584   -0.476640
Sum of atomic charges       :   -0.0000000

LOEWDIN ATOMIC CHARGES AND SPIN DENSITIES
-----------------------------------------
   0 V :   -0.304498    3.323362
   1 S :    0.304498   -0.323362

  Mayer bond orders larger than 0.100000
B(  0-V ,  1-S ) :   2.2179

FINAL SINGLE POINT ENERGY     -1341.157482033642

DIPOLE MOMENT
-------------
                                X             Y             Z
Electronic contribution:     -0.00000      -0.00000      -5.64833
Nuclear contribution   :      0.00000       0.00000       3.63475
                        -----------------------------------------
Total Dipole Moment    :     -0.00000      -0.00000      -2.01358
                        -----------------------------------------
Magnitude (a.u.)       :      2.01358
Magnitude (Debye)      :      5.11811

Rotational constants in cm-1:     0.000000     0.202740     0.202740
Rotational constants in MHz :     0.000000  6078.002656  6078.002656

                             ****ORCA TERMINATED NORMALLY****
TOTAL RUN TIME: 0 days 0 hours 3 minutes 15 seconds 285 msec
