                         Program Version 4.2.0 -  RELEASE  -
|  1> #
|  2> # 19_CrH ccsd(t)/cbs
|  3> #
|  4> ! ccsd(t) extrapolate(3/4,def2) verytightscf veryslowconv kdiis
|  5>
|  6> *xyz 0 6
|  7>   Cr  0.00000000000000      0.00000000000000      0.17036458455703
|  8>   H   0.00000000000000      0.00000000000000      1.82963541544297
|  9> *
| 10>
| 11> %maxcore 5000
| 12>
| 13> %scf
| 14> maxiter 1500
| 15> diismaxeq 40
| 16> directresetfreq 1
| 17> Shift Shift 0.1 ErrOff 0.1 end
| 18> end
| 19>
| 20> %pal
| 21> nprocs 24
| 22> end
| 23>
| 24> %method
| 25> z_maxiter 1500
| 26> end
| 27>
| 28>
| 29>                          ****END OF INPUT****
 Total Charge           Charge          ....    0
 Multiplicity           Mult            ....    6
 Number of Electrons    NEL             ....   25
E(0)                                       ...  -1043.872727881
E(0)                                       ...  -1043.872727881
E(CORR)                                    ...     -0.446627515
E(TOT)                                     ...  -1044.319355396
E(CCSD(T))                                 ...  -1044.331679269

CARTESIAN COORDINATES (ANGSTROEM)
---------------------------------
  Cr     0.000000    0.000000    0.170365
  H      0.000000    0.000000    1.829635

 Multiplicity           Mult            ....    6
 Number of Electrons    NEL             ....   25
 Basis Dimension        Dim             ....  123

ORBITAL ENERGIES
----------------
                 SPIN UP ORBITALS
  NO   OCC          E(Eh)            E(eV)
   0   1.0000    -220.540792     -6001.2200
   1   1.0000     -26.429359      -719.1794
   2   1.0000     -22.356404      -608.3487
   3   1.0000     -22.356374      -608.3479
   4   1.0000     -22.356374      -608.3479
   5   1.0000      -3.598907       -97.9312
   6   1.0000      -2.399836       -65.3028
   7   1.0000      -2.399836       -65.3028
   8   1.0000      -2.362472       -64.2861
   9   1.0000      -0.535940       -14.5837
  10   1.0000      -0.535940       -14.5837
  11   1.0000      -0.504807       -13.7365
  12   1.0000      -0.504807       -13.7365
  13   1.0000      -0.405646       -11.0382
  14   1.0000      -0.257322        -7.0021
  15   0.0000       0.020999         0.5714
  16   0.0000       0.020999         0.5714
  17   0.0000       0.038091         1.0365
  18   0.0000       0.075891         2.0651
  19   0.0000       0.108020         2.9394

                 SPIN DOWN ORBITALS
  NO   OCC          E(Eh)            E(eV)
   0   1.0000    -220.538644     -6001.1616
   1   1.0000     -26.335174      -716.6165
   2   1.0000     -22.277938      -606.2135
   3   1.0000     -22.256005      -605.6167
   4   1.0000     -22.256005      -605.6167
   5   1.0000      -3.286109       -89.4196
   6   1.0000      -2.042310       -55.5741
   7   1.0000      -1.991634       -54.1951
   8   1.0000      -1.991634       -54.1951
   9   1.0000      -0.377715       -10.2782
  10   0.0000       0.018613         0.5065
  11   0.0000       0.043700         1.1891
  12   0.0000       0.043700         1.1891
  13   0.0000       0.068974         1.8769
  14   0.0000       0.120109         3.2683

E(0)                                       ...  -1043.894882689
E(0)                                       ...  -1043.894882689
E(CORR)                                    ...     -0.476584647
E(TOT)                                     ...  -1044.371467336
E(CCSD(T))                                 ...  -1044.385973164

MULLIKEN ATOMIC CHARGES AND SPIN DENSITIES
------------------------------------------
   0 Cr:    0.251011    5.184040
   1 H :   -0.251011   -0.184040
Sum of atomic charges       :    0.0000000

LOEWDIN ATOMIC CHARGES AND SPIN DENSITIES
-----------------------------------------
   0 Cr:    0.198316    5.033274
   1 H :   -0.198316   -0.033274

  Mayer bond orders larger than 0.100000
B(  0-Cr,  1-H ) :   0.9029

FINAL SINGLE POINT ENERGY     -1044.412831451378

DIPOLE MOMENT
-------------
                                X             Y             Z
Electronic contribution:     -0.00000       0.00000      -3.27739
Nuclear contribution   :      0.00000       0.00000       1.64492
                        -----------------------------------------
Total Dipole Moment    :     -0.00000       0.00000      -1.63247
                        -----------------------------------------
Magnitude (a.u.)       :      1.63247
Magnitude (Debye)      :      4.14940

Rotational constants in cm-1:     0.000000     6.192127     6.192127
Rotational constants in MHz :     0.000000 185635.310837 185635.310837

                             ****ORCA TERMINATED NORMALLY****
TOTAL RUN TIME: 0 days 0 hours 1 minutes 36 seconds 433 msec
