                         Program Version 4.2.0 -  RELEASE  -
|  1> #
|  2> # 20_CrF ccsd(t)/cbs
|  3> #
|  4> ! ccsd(t) extrapolate(3/4,def2) verytightscf
|  5>
|  6> *xyz 0 6
|  7>   Cr  0.00000000000000      0.00000000000000      0.10659678981823
|  8>   F   0.00000000000000      0.00000000000000      1.89340321018177
|  9> *
| 10>
| 11> %maxcore 5000
| 12> %pal
| 13> nprocs 24
| 14> end
| 15>
| 16>
| 17>                          ****END OF INPUT****
 Total Charge           Charge          ....    0
 Multiplicity           Mult            ....    6
 Number of Electrons    NEL             ....   33
E(0)                                       ...  -1142.867320346
E(0)                                       ...  -1142.867320346
E(CORR)                                    ...     -0.663659452
E(TOT)                                     ...  -1143.530979798
E(CCSD(T))                                 ...  -1143.550128165

CARTESIAN COORDINATES (ANGSTROEM)
---------------------------------
  Cr     0.000000    0.000000    0.106597
  F      0.000000    0.000000    1.893403

 Multiplicity           Mult            ....    6
 Number of Electrons    NEL             ....   33
 Basis Dimension        Dim             ....  150

ORBITAL ENERGIES
----------------
                 SPIN UP ORBITALS
  NO   OCC          E(Eh)            E(eV)
   0   1.0000    -220.569430     -6001.9993
   1   1.0000     -26.460469      -720.0260
   2   1.0000     -26.188477      -712.6247
   3   1.0000     -22.387333      -609.1903
   4   1.0000     -22.387333      -609.1903
   5   1.0000     -22.387123      -609.1846
   6   1.0000      -3.629245       -98.7568
   7   1.0000      -2.430611       -66.1403
   8   1.0000      -2.430611       -66.1403
   9   1.0000      -2.388783       -65.0021
  10   1.0000      -1.465620       -39.8815
  11   1.0000      -0.618668       -16.8348
  12   1.0000      -0.618668       -16.8348
  13   1.0000      -0.588474       -16.0132
  14   1.0000      -0.533590       -14.5197
  15   1.0000      -0.533590       -14.5197
  16   1.0000      -0.512549       -13.9472
  17   1.0000      -0.512549       -13.9472
  18   1.0000      -0.276822        -7.5327
  19   0.0000       0.022586         0.6146
  20   0.0000       0.022586         0.6146
  21   0.0000       0.039744         1.0815
  22   0.0000       0.074868         2.0373
  23   0.0000       0.102788         2.7970

                 SPIN DOWN ORBITALS
  NO   OCC          E(Eh)            E(eV)
   0   1.0000    -220.566710     -6001.9253
   1   1.0000     -26.365892      -717.4524
   2   1.0000     -26.187487      -712.5977
   3   1.0000     -22.310457      -607.0984
   4   1.0000     -22.285962      -606.4319
   5   1.0000     -22.285962      -606.4319
   6   1.0000      -3.319966       -90.3409
   7   1.0000      -2.088535       -56.8319
   8   1.0000      -2.023277       -55.0562
   9   1.0000      -2.023277       -55.0562
  10   1.0000      -1.459731       -39.7213
  11   1.0000      -0.589296       -16.0356
  12   1.0000      -0.556463       -15.1421
  13   1.0000      -0.556463       -15.1421
  14   0.0000       0.006759         0.1839
  15   0.0000       0.044811         1.2194
  16   0.0000       0.044811         1.2194
  17   0.0000       0.061714         1.6793
  18   0.0000       0.117731         3.2036

E(0)                                       ...  -1142.894394289
E(0)                                       ...  -1142.894394289
E(CORR)                                    ...     -0.717331974
E(TOT)                                     ...  -1143.611726262
E(CCSD(T))                                 ...  -1143.634633328

MULLIKEN ATOMIC CHARGES AND SPIN DENSITIES
------------------------------------------
   0 Cr:    0.567690    5.015738
   1 F :   -0.567690   -0.015738
Sum of atomic charges       :   -0.0000000

LOEWDIN ATOMIC CHARGES AND SPIN DENSITIES
-----------------------------------------
   0 Cr:    0.185211    4.968802
   1 F :   -0.185211    0.031198

  Mayer bond orders larger than 0.100000
B(  0-Cr,  1-F ) :   0.7310

FINAL SINGLE POINT ENERGY     -1143.680904071066

DIPOLE MOMENT
-------------
                                X             Y             Z
Electronic contribution:     -0.00000      -0.00000      -2.36982
Nuclear contribution   :      0.00000       0.00000       0.57299
                        -----------------------------------------
Total Dipole Moment    :     -0.00000      -0.00000      -1.79683
                        -----------------------------------------
Magnitude (a.u.)       :      1.79683
Magnitude (Debye)      :      4.56718

Rotational constants in cm-1:     0.000000     0.379469     0.379469
Rotational constants in MHz :     0.000000 11376.206933 11376.206933

                             ****ORCA TERMINATED NORMALLY****
TOTAL RUN TIME: 0 days 0 hours 2 minutes 10 seconds 934 msec
