                         Program Version 4.2.0 -  RELEASE  -
|  1> #
|  2> # 21_CrCl ccsd(t)/cbs
|  3> #
|  4> ! ccsd(t) extrapolate(3/4,def2) verytightscf veryslowconv kdiis
|  5>
|  6> *xyz 0 6
|  7>   Cr  0.00000000000000      0.00000000000000     -0.09885250745251
|  8>   Cl  0.00000000000000      0.00000000000000      2.09885250745250
|  9> *
| 10>
| 11> %maxcore 5000
| 12>
| 13> %scf
| 14> MaxIter 1500
| 15> DIISMaxEq 40
| 16> directresetfreq 1
| 17> Shift Shift 0.1 ErrOff 0.1 end
| 18> end
| 19>
| 20> %pal
| 21> nprocs 24
| 22> end
| 23>
| 24> %method
| 25> z_maxiter 1000
| 26> end
| 27>
| 28>
| 29>                          ****END OF INPUT****
 Total Charge           Charge          ....    0
 Multiplicity           Mult            ....    6
 Number of Electrons    NEL             ....   41
E(0)                                       ...  -1502.907804861
E(0)                                       ...  -1502.907804861
E(CORR)                                    ...     -0.623465772
E(TOT)                                     ...  -1503.531270633
E(CCSD(T))                                 ...  -1503.550320776

CARTESIAN COORDINATES (ANGSTROEM)
---------------------------------
  Cr     0.000000    0.000000   -0.098853
  Cl     0.000000    0.000000    2.098853

 Multiplicity           Mult            ....    6
 Number of Electrons    NEL             ....   41
 Basis Dimension        Dim             ....  163

ORBITAL ENERGIES
----------------
                 SPIN UP ORBITALS
  NO   OCC          E(Eh)            E(eV)
   0   1.0000    -220.587424     -6002.4890
   1   1.0000    -104.773775     -2851.0394
   2   1.0000     -26.477901      -720.5003
   3   1.0000     -22.404920      -609.6689
   4   1.0000     -22.404920      -609.6689
   5   1.0000     -22.404343      -609.6532
   6   1.0000     -10.501225      -285.7528
   7   1.0000      -7.967457      -216.8055
   8   1.0000      -7.967457      -216.8055
   9   1.0000      -7.967135      -216.7968
  10   1.0000      -3.646777       -99.2338
  11   1.0000      -2.446666       -66.5772
  12   1.0000      -2.446666       -66.5772
  13   1.0000      -2.407656       -65.5156
  14   1.0000      -1.027698       -27.9651
  15   1.0000      -0.596943       -16.2437
  16   1.0000      -0.596943       -16.2437
  17   1.0000      -0.549543       -14.9538
  18   1.0000      -0.549543       -14.9538
  19   1.0000      -0.478002       -13.0071
  20   1.0000      -0.417866       -11.3707
  21   1.0000      -0.417866       -11.3707
  22   1.0000      -0.283161        -7.7052
  23   0.0000       0.020886         0.5683
  24   0.0000       0.020886         0.5683
  25   0.0000       0.029564         0.8045
  26   0.0000       0.073209         1.9921
  27   0.0000       0.089612         2.4385

                 SPIN DOWN ORBITALS
  NO   OCC          E(Eh)            E(eV)
   0   1.0000    -220.584693     -6002.4147
   1   1.0000    -104.773898     -2851.0427
   2   1.0000     -26.383013      -717.9183
   3   1.0000     -22.327043      -607.5497
   4   1.0000     -22.303314      -606.9040
   5   1.0000     -22.303314      -606.9040
   6   1.0000     -10.501303      -285.7550
   7   1.0000      -7.968570      -216.8358
   8   1.0000      -7.967098      -216.7958
   9   1.0000      -7.967098      -216.7958
  10   1.0000      -3.335587       -90.7659
  11   1.0000      -2.099090       -57.1191
  12   1.0000      -2.038457       -55.4692
  13   1.0000      -2.038457       -55.4692
  14   1.0000      -1.026286       -27.9267
  15   1.0000      -0.468904       -12.7595
  16   1.0000      -0.428423       -11.6580
  17   1.0000      -0.428423       -11.6580
  18   0.0000       0.003654         0.0994
  19   0.0000       0.044675         1.2157
  20   0.0000       0.044675         1.2157
  21   0.0000       0.058761         1.5990
  22   0.0000       0.113676         3.0933

E(0)                                       ...  -1502.942962271
E(0)                                       ...  -1502.942962271
E(CORR)                                    ...     -0.672873830
E(TOT)                                     ...  -1503.615836101
E(CCSD(T))                                 ...  -1503.638948057

MULLIKEN ATOMIC CHARGES AND SPIN DENSITIES
------------------------------------------
   0 Cr:    0.550935    5.041976
   1 Cl:   -0.550935   -0.041976
Sum of atomic charges       :   -0.0000000

LOEWDIN ATOMIC CHARGES AND SPIN DENSITIES
-----------------------------------------
   0 Cr:   -0.016665    4.977557
   1 Cl:    0.016665    0.022443

  Mayer bond orders larger than 0.100000
B(  0-Cr,  1-Cl) :   0.8828

FINAL SINGLE POINT ENERGY     -1503.683397875530

DIPOLE MOMENT
-------------
                                X             Y             Z
Electronic contribution:     -0.00000       0.00000      -4.54065
Nuclear contribution   :      0.00000       0.00000       1.57322
                        -----------------------------------------
Total Dipole Moment    :     -0.00000       0.00000      -2.96743
                        -----------------------------------------
Magnitude (a.u.)       :      2.96743
Magnitude (Debye)      :      7.54262

Rotational constants in cm-1:     0.000000     0.165568     0.165568
Rotational constants in MHz :     0.000000  4963.604658  4963.604658

                             ****ORCA TERMINATED NORMALLY****
TOTAL RUN TIME: 0 days 0 hours 3 minutes 36 seconds 118 msec
