                         Program Version 4.2.0 -  RELEASE  -
|  1> #
|  2> # 22_CrBr ccsd(t)/cbs
|  3> #
|  4> ! ccsd(t) extrapolate(3/4,def2) verytightscf
|  5>
|  6> *xyz 0 6
|  7>   Cr  0.00000000000000      0.00000000000000     -0.17198862284832
|  8>   Br  0.00000000000000      0.00000000000000      2.17198862284831
|  9> *
| 10>
| 11> %maxcore 5000
| 12> %pal
| 13> nprocs 24
| 14> end
| 15>
| 16>
| 17>                          ****END OF INPUT****
 Total Charge           Charge          ....    0
 Multiplicity           Mult            ....    6
 Number of Electrons    NEL             ....   59
E(0)                                       ...  -3615.814431057
E(0)                                       ...  -3615.814431057
E(CORR)                                    ...     -0.700769685
E(TOT)                                     ...  -3616.515200741
E(CCSD(T))                                 ...  -3616.536369039

CARTESIAN COORDINATES (ANGSTROEM)
---------------------------------
  Cr     0.000000    0.000000   -0.171989
  Br     0.000000    0.000000    2.171989

 Multiplicity           Mult            ....    6
 Number of Electrons    NEL             ....   59
 Basis Dimension        Dim             ....  182

ORBITAL ENERGIES
----------------
                 SPIN UP ORBITALS
  NO   OCC          E(Eh)            E(eV)
   0   1.0000    -489.941488    -13331.9857
   1   1.0000    -220.438688     -5998.4417
   2   1.0000     -65.082477     -1770.9842
   3   1.0000     -58.437101     -1590.1544
   4   1.0000     -58.437101     -1590.1544
   5   1.0000     -58.436695     -1590.1433
   6   1.0000     -26.312380      -715.9963
   7   1.0000     -22.243886      -605.2869
   8   1.0000     -22.243886      -605.2869
   9   1.0000     -22.239861      -605.1774
  10   1.0000      -9.754738      -265.4399
  11   1.0000      -7.362171      -200.3349
  12   1.0000      -7.362068      -200.3321
  13   1.0000      -7.362068      -200.3321
  14   1.0000      -3.507622       -95.4472
  15   1.0000      -3.105060       -84.4930
  16   1.0000      -3.104391       -84.4748
  17   1.0000      -3.104391       -84.4748
  18   1.0000      -3.103160       -84.4413
  19   1.0000      -3.103160       -84.4413
  20   1.0000      -2.313862       -62.9634
  21   1.0000      -2.310775       -62.8794
  22   1.0000      -2.310775       -62.8794
  23   1.0000      -0.917203       -24.9584
  24   1.0000      -0.446595       -12.1525
  25   1.0000      -0.446595       -12.1525
  26   1.0000      -0.424446       -11.5498
  27   1.0000      -0.424446       -11.5498
  28   1.0000      -0.423778       -11.5316
  29   1.0000      -0.344072        -9.3627
  30   1.0000      -0.344072        -9.3627
  31   1.0000      -0.337522        -9.1845
  32   0.0000      -0.016490        -0.4487
  33   0.0000       0.035420         0.9638
  34   0.0000       0.035420         0.9638
  35   0.0000       0.066298         1.8040
  36   0.0000       0.092249         2.5102

                 SPIN DOWN ORBITALS
  NO   OCC          E(Eh)            E(eV)
   0   1.0000    -489.942098    -13332.0023
   1   1.0000    -220.438186     -5998.4280
   2   1.0000     -65.082821     -1770.9936
   3   1.0000     -58.438040     -1590.1799
   4   1.0000     -58.437354     -1590.1612
   5   1.0000     -58.437354     -1590.1612
   6   1.0000     -26.214771      -713.3402
   7   1.0000     -22.146203      -602.6288
   8   1.0000     -22.144688      -602.5876
   9   1.0000     -22.144688      -602.5876
  10   1.0000      -9.755905      -265.4717
  11   1.0000      -7.365438      -200.4237
  12   1.0000      -7.362564      -200.3455
  13   1.0000      -7.362564      -200.3455
  14   1.0000      -3.171220       -86.2933
  15   1.0000      -3.106109       -84.5215
  16   1.0000      -3.105321       -84.5001
  17   1.0000      -3.105321       -84.5001
  18   1.0000      -3.103337       -84.4461
  19   1.0000      -3.103337       -84.4461
  20   1.0000      -1.904748       -51.8308
  21   1.0000      -1.896648       -51.6104
  22   1.0000      -1.896648       -51.6104
  23   1.0000      -0.924383       -25.1537
  24   1.0000      -0.395171       -10.7532
  25   1.0000      -0.363405        -9.8887
  26   1.0000      -0.363405        -9.8887
  27   0.0000      -0.005515        -0.1501
  28   0.0000       0.041994         1.1427
  29   0.0000       0.041994         1.1427
  30   0.0000       0.062766         1.7080
  31   0.0000       0.109531         2.9805

E(0)                                       ...  -3615.885374156
E(0)                                       ...  -3615.885374156
E(CORR)                                    ...     -1.027115561
E(TOT)                                     ...  -3616.912489716
E(CCSD(T))                                 ...  -3616.940659824

MULLIKEN ATOMIC CHARGES AND SPIN DENSITIES
------------------------------------------
   0 Cr:    0.532405    5.054678
   1 Br:   -0.532405   -0.054678
Sum of atomic charges       :    0.0000000

LOEWDIN ATOMIC CHARGES AND SPIN DENSITIES
-----------------------------------------
   0 Cr:   -0.094935    4.990293
   1 Br:    0.094935    0.009707

  Mayer bond orders larger than 0.100000
B(  0-Cr,  1-Br) :   0.8277

FINAL SINGLE POINT ENERGY     -3617.197355461456

DIPOLE MOMENT
-------------
                                X             Y             Z
Electronic contribution:     -0.00000      -0.00000       0.89715
Nuclear contribution   :      0.00000       0.00000      -3.27761
                        -----------------------------------------
Total Dipole Moment    :     -0.00000      -0.00000      -2.38046
                        -----------------------------------------
Magnitude (a.u.)       :      2.38046
Magnitude (Debye)      :      6.05065

Rotational constants in cm-1:     0.000000     0.097406     0.097406
Rotational constants in MHz :     0.000000  2920.152240  2920.152240

                             ****ORCA TERMINATED NORMALLY****
TOTAL RUN TIME: 0 days 0 hours 6 minutes 38 seconds 955 msec
