                         Program Version 4.2.0 -  RELEASE  -
|  1> #
|  2> # 23_CrO ccsd(t)/cbs
|  3> #
|  4> ! ccsd(t) extrapolate(3/4,def2) verytightscf
|  5>
|  6> *xyz 0 5
|  7>   Cr  0.00000000000000      0.00000000000000      0.19264925280896
|  8>   O   0.00000000000000      0.00000000000000      1.80735074719104
|  9> *
| 10>
| 11> %maxcore 5000
| 12> %pal
| 13> nprocs 24
| 14> end
| 15>
| 16>
| 17>                          ****END OF INPUT****
 Total Charge           Charge          ....    0
 Multiplicity           Mult            ....    5
 Number of Electrons    NEL             ....   32
E(0)                                       ...  -1118.159394946
E(0)                                       ...  -1118.159394946
E(CORR)                                    ...     -0.683751495
E(TOT)                                     ...  -1118.843146440
E(CCSD(T))                                 ...  -1118.880503873

CARTESIAN COORDINATES (ANGSTROEM)
---------------------------------
  Cr     0.000000    0.000000    0.192649
  O      0.000000    0.000000    1.807351

 Multiplicity           Mult            ....    5
 Number of Electrons    NEL             ....   32
 Basis Dimension        Dim             ....  150

ORBITAL ENERGIES
----------------
                 SPIN UP ORBITALS
  NO   OCC          E(Eh)            E(eV)
   0   1.0000    -220.581744     -6002.3344
   1   1.0000     -26.474949      -720.4200
   2   1.0000     -22.401629      -609.5793
   3   1.0000     -22.401385      -609.5727
   4   1.0000     -22.400110      -609.5380
   5   1.0000     -20.530974      -558.6762
   6   1.0000      -3.636374       -98.9508
   7   1.0000      -2.451168       -66.6997
   8   1.0000      -2.409626       -65.5692
   9   1.0000      -2.407427       -65.5094
  10   1.0000      -1.149649       -31.2835
  11   1.0000      -0.604210       -16.4414
  12   1.0000      -0.572439       -15.5769
  13   1.0000      -0.551801       -15.0153
  14   1.0000      -0.518325       -14.1043
  15   1.0000      -0.466614       -12.6972
  16   1.0000      -0.415905       -11.3174
  17   1.0000      -0.273983        -7.4555
  18   0.0000       0.019355         0.5267
  19   0.0000       0.032745         0.8910
  20   0.0000       0.050263         1.3677
  21   0.0000       0.064914         1.7664
  22   0.0000       0.094298         2.5660

                 SPIN DOWN ORBITALS
  NO   OCC          E(Eh)            E(eV)
   0   1.0000    -220.579980     -6002.2864
   1   1.0000     -26.384888      -717.9693
   2   1.0000     -22.324957      -607.4930
   3   1.0000     -22.319467      -607.3436
   4   1.0000     -22.293513      -606.6373
   5   1.0000     -20.568230      -559.6900
   6   1.0000      -3.343679       -90.9861
   7   1.0000      -2.116430       -57.5910
   8   1.0000      -2.082204       -56.6596
   9   1.0000      -2.017737       -54.9054
  10   1.0000      -1.281216       -34.8637
  11   1.0000      -0.621345       -16.9077
  12   1.0000      -0.532170       -14.4811
  13   1.0000      -0.519516       -14.1368
  14   0.0000       0.011664         0.3174
  15   0.0000       0.046007         1.2519
  16   0.0000       0.047884         1.3030
  17   0.0000       0.061897         1.6843
  18   0.0000       0.119003         3.2382

E(0)                                       ...  -1118.184719540
E(0)                                       ...  -1118.184719540
E(CORR)                                    ...     -0.729557370
E(TOT)                                     ...  -1118.914276910
E(CCSD(T))                                 ...  -1118.955945504

MULLIKEN ATOMIC CHARGES AND SPIN DENSITIES
------------------------------------------
   0 Cr:    0.525906    4.283056
   1 O :   -0.525906   -0.283056
Sum of atomic charges       :    0.0000000

LOEWDIN ATOMIC CHARGES AND SPIN DENSITIES
-----------------------------------------
   0 Cr:    0.089689    4.175489
   1 O :   -0.089689   -0.175489

  Mayer bond orders larger than 0.100000
B(  0-Cr,  1-O ) :   2.2141

FINAL SINGLE POINT ENERGY     -1118.996557384235

DIPOLE MOMENT
-------------
                                X             Y             Z
Electronic contribution:      0.00000      -0.00000      -3.10441
Nuclear contribution   :      0.00000       0.00000       1.43702
                        -----------------------------------------
Total Dipole Moment    :      0.00000      -0.00000      -1.66739
                        -----------------------------------------
Magnitude (a.u.)       :      1.66739
Magnitude (Debye)      :      4.23817

Rotational constants in cm-1:     0.000000     0.528468     0.528468
Rotational constants in MHz :     0.000000 15843.074100 15843.074100

                             ****ORCA TERMINATED NORMALLY****
TOTAL RUN TIME: 0 days 0 hours 2 minutes 15 seconds 303 msec
