                         Program Version 4.2.0 -  RELEASE  -
|  1> #
|  2> # 24_CrS ccsd(t)/cbs
|  3> #
|  4> ! ccsd(t) extrapolate(3/4,def2) verytightscf
|  5>
|  6> *xyz 0 5
|  7>   Cr  0.00000000000000      0.00000000000000     -0.04064132858643
|  8>   S   0.00000000000000      0.00000000000000      2.04064132858643
|  9> *
| 10>
| 11> %maxcore 5000
| 12> %pal
| 13> nprocs 24
| 14> end
| 15>
| 16>
| 17>                          ****END OF INPUT****
 Total Charge           Charge          ....    0
 Multiplicity           Mult            ....    5
 Number of Electrons    NEL             ....   40
E(0)                                       ...  -1440.846800911
E(0)                                       ...  -1440.846800911
E(CORR)                                    ...     -0.622949335
E(TOT)                                     ...  -1441.469750246
E(CCSD(T))                                 ...  -1441.505010978

CARTESIAN COORDINATES (ANGSTROEM)
---------------------------------
  Cr     0.000000    0.000000   -0.040641
  S      0.000000    0.000000    2.040641

 Multiplicity           Mult            ....    5
 Number of Electrons    NEL             ....   40
 Basis Dimension        Dim             ....  163

ORBITAL ENERGIES
----------------
                 SPIN UP ORBITALS
  NO   OCC          E(Eh)            E(eV)
   0   1.0000    -220.601970     -6002.8848
   1   1.0000     -91.896266     -2500.6245
   2   1.0000     -26.493364      -720.9211
   3   1.0000     -22.420128      -610.0827
   4   1.0000     -22.419929      -610.0773
   5   1.0000     -22.418231      -610.0311
   6   1.0000      -8.900258      -242.1883
   7   1.0000      -6.580348      -179.0604
   8   1.0000      -6.578166      -179.0010
   9   1.0000      -6.570549      -178.7937
  10   1.0000      -3.656468       -99.4976
  11   1.0000      -2.470200       -67.2176
  12   1.0000      -2.426824       -66.0372
  13   1.0000      -2.426097       -66.0174
  14   1.0000      -0.815109       -22.1802
  15   1.0000      -0.598079       -16.2746
  16   1.0000      -0.580953       -15.8085
  17   1.0000      -0.570976       -15.5371
  18   1.0000      -0.547175       -14.8894
  19   1.0000      -0.335482        -9.1289
  20   1.0000      -0.316838        -8.6216
  21   1.0000      -0.296054        -8.0560
  22   0.0000      -0.025817        -0.7025
  23   0.0000       0.016035         0.4363
  24   0.0000       0.030243         0.8230
  25   0.0000       0.061015         1.6603
  26   0.0000       0.077123         2.0986

                 SPIN DOWN ORBITALS
  NO   OCC          E(Eh)            E(eV)
   0   1.0000    -220.599824     -6002.8264
   1   1.0000     -91.904674     -2500.8533
   2   1.0000     -26.401087      -718.4101
   3   1.0000     -22.339653      -607.8929
   4   1.0000     -22.336373      -607.8036
   5   1.0000     -22.310897      -607.1104
   6   1.0000      -8.908449      -242.4112
   7   1.0000      -6.600179      -179.6000
   8   1.0000      -6.588860      -179.2920
   9   1.0000      -6.586066      -179.2160
  10   1.0000      -3.355355       -91.3038
  11   1.0000      -2.108318       -57.3703
  12   1.0000      -2.095775       -57.0289
  13   1.0000      -2.031954       -55.2923
  14   1.0000      -0.887049       -24.1378
  15   1.0000      -0.431597       -11.7444
  16   1.0000      -0.360184        -9.8011
  17   1.0000      -0.350925        -9.5492
  18   0.0000      -0.006921        -0.1883
  19   0.0000       0.041892         1.1399
  20   0.0000       0.044481         1.2104
  21   0.0000       0.059131         1.6090
  22   0.0000       0.104051         2.8314

E(0)                                       ...  -1440.880262012
E(0)                                       ...  -1440.880262012
E(CORR)                                    ...     -0.666515315
E(TOT)                                     ...  -1441.546777327
E(CCSD(T))                                 ...  -1441.586359558

MULLIKEN ATOMIC CHARGES AND SPIN DENSITIES
------------------------------------------
   0 Cr:    0.360853    4.612323
   1 S :   -0.360853   -0.612323
Sum of atomic charges       :   -0.0000000

LOEWDIN ATOMIC CHARGES AND SPIN DENSITIES
-----------------------------------------
   0 Cr:   -0.185567    4.447671
   1 S :    0.185567   -0.447671

  Mayer bond orders larger than 0.100000
B(  0-Cr,  1-S ) :   1.9876

FINAL SINGLE POINT ENERGY     -1441.626440625353

DIPOLE MOMENT
-------------
                                X             Y             Z
Electronic contribution:     -0.00000      -0.00000      -4.81095
Nuclear contribution   :      0.00000       0.00000       2.92710
                        -----------------------------------------
Total Dipole Moment    :     -0.00000      -0.00000      -1.88385
                        -----------------------------------------
Magnitude (a.u.)       :      1.88385
Magnitude (Debye)      :      4.78838

Rotational constants in cm-1:     0.000000     0.196226     0.196226
Rotational constants in MHz :     0.000000  5882.717555  5882.717555

                             ****ORCA TERMINATED NORMALLY****
TOTAL RUN TIME: 0 days 0 hours 3 minutes 23 seconds 667 msec
