                         Program Version 4.2.0 -  RELEASE  -
|  1> #
|  2> # 25_MnH ccsd(t)/cbs
|  3> #
|  4> ! ccsd(t) extrapolate(3/4,def2) verytightscf
|  5>
|  6> *xyz 0 7
|  7>   Mn  0.00000000000000      0.00000000000000      0.13923463274405
|  8>   H   0.00000000000000      0.00000000000000      1.86076536725595
|  9> *
| 10>
| 11> %maxcore 5000
| 12> %pal
| 13> nprocs 24
| 14> end
| 15>
| 16>
| 17>                          ****END OF INPUT****
 Total Charge           Charge          ....    0
 Multiplicity           Mult            ....    7
 Number of Electrons    NEL             ....   26
E(0)                                       ...  -1150.400974889
E(0)                                       ...  -1150.400974889
E(CORR)                                    ...     -0.457192647
E(TOT)                                     ...  -1150.858167536
E(CCSD(T))                                 ...  -1150.868591320

CARTESIAN COORDINATES (ANGSTROEM)
---------------------------------
  Mn     0.000000    0.000000    0.139235
  H      0.000000    0.000000    1.860765

 Multiplicity           Mult            ....    7
 Number of Electrons    NEL             ....   26
 Basis Dimension        Dim             ....  130

ORBITAL ENERGIES
----------------
                 SPIN UP ORBITALS
  NO   OCC          E(Eh)            E(eV)
   0   1.0000    -240.544445     -6545.5471
   1   1.0000     -29.186741      -794.2116
   2   1.0000     -24.890109      -677.2943
   3   1.0000     -24.890109      -677.2943
   4   1.0000     -24.889519      -677.2782
   5   1.0000      -4.030158      -109.6662
   6   1.0000      -2.737576       -74.4932
   7   1.0000      -2.737576       -74.4932
   8   1.0000      -2.736622       -74.4673
   9   1.0000      -0.654287       -17.8040
  10   1.0000      -0.654287       -17.8040
  11   1.0000      -0.650893       -17.7117
  12   1.0000      -0.647315       -17.6143
  13   1.0000      -0.647315       -17.6143
  14   1.0000      -0.402012       -10.9393
  15   1.0000      -0.257534        -7.0078
  16   0.0000       0.017455         0.4750
  17   0.0000       0.017455         0.4750
  18   0.0000       0.073194         1.9917
  19   0.0000       0.078659         2.1404
  20   0.0000       0.116728         3.1763

                 SPIN DOWN ORBITALS
  NO   OCC          E(Eh)            E(eV)
   0   1.0000    -240.540741     -6545.4463
   1   1.0000     -29.053052      -790.5737
   2   1.0000     -24.758226      -673.7056
   3   1.0000     -24.758226      -673.7056
   4   1.0000     -24.756818      -673.6673
   5   1.0000      -3.619924       -98.5031
   6   1.0000      -2.246389       -61.1273
   7   1.0000      -2.246389       -61.1273
   8   1.0000      -2.236730       -60.8645
   9   1.0000      -0.388759       -10.5787
  10   0.0000       0.019841         0.5399
  11   0.0000       0.041197         1.1210
  12   0.0000       0.041197         1.1210
  13   0.0000       0.072017         1.9597
  14   0.0000       0.117978         3.2103

E(0)                                       ...  -1150.424401579
E(0)                                       ...  -1150.424401579
E(CORR)                                    ...     -0.474014282
E(TOT)                                     ...  -1150.898415861
E(CCSD(T))                                 ...  -1150.910536180

MULLIKEN ATOMIC CHARGES AND SPIN DENSITIES
------------------------------------------
   0 Mn:    0.265659    5.926464
   1 H :   -0.265659    0.073536
Sum of atomic charges       :   -0.0000000

LOEWDIN ATOMIC CHARGES AND SPIN DENSITIES
-----------------------------------------
   0 Mn:    0.203857    5.921236
   1 H :   -0.203857    0.078764

  Mayer bond orders larger than 0.100000
B(  0-Mn,  1-H ) :   0.8569

FINAL SINGLE POINT ENERGY     -1150.927480094519

DIPOLE MOMENT
-------------
                                X             Y             Z
Electronic contribution:      0.00000      -0.00000      -2.15496
Nuclear contribution   :      0.00000       0.00000       1.72930
                        -----------------------------------------
Total Dipole Moment    :      0.00000      -0.00000      -0.42566
                        -----------------------------------------
Magnitude (a.u.)       :      0.42566
Magnitude (Debye)      :      1.08195

Rotational constants in cm-1:     0.000000     5.746491     5.746491
Rotational constants in MHz :     0.000000 172275.461427 172275.461427

                             ****ORCA TERMINATED NORMALLY****
TOTAL RUN TIME: 0 days 0 hours 1 minutes 2 seconds 841 msec
