                         Program Version 4.2.0 -  RELEASE  -
|  1> #
|  2> # 26_MnF ccsd(t)/cbs
|  3> #
|  4> ! ccsd(t) extrapolate(3/4,def2) verytightscf
|  5>
|  6> *xyz 0 7
|  7>   Mn  0.00000000000000      0.00000000000000      0.08590077209256
|  8>   F   0.00000000000000      0.00000000000000      1.91409922790744
|  9> *
| 10>
| 11> %maxcore 5000
| 12> %pal
| 13> nprocs 24
| 14> end
| 15>
| 16>
| 17>                          ****END OF INPUT****
 Total Charge           Charge          ....    0
 Multiplicity           Mult            ....    7
 Number of Electrons    NEL             ....   34
E(0)                                       ...  -1249.385787309
E(0)                                       ...  -1249.385787309
E(CORR)                                    ...     -0.692744426
E(TOT)                                     ...  -1250.078531735
E(CCSD(T))                                 ...  -1250.096383277

CARTESIAN COORDINATES (ANGSTROEM)
---------------------------------
  Mn     0.000000    0.000000    0.085901
  F      0.000000    0.000000    1.914099

 Multiplicity           Mult            ....    7
 Number of Electrons    NEL             ....   34
 Basis Dimension        Dim             ....  157

ORBITAL ENERGIES
----------------
                 SPIN UP ORBITALS
  NO   OCC          E(Eh)            E(eV)
   0   1.0000    -240.543112     -6545.5108
   1   1.0000     -29.184561      -794.1523
   2   1.0000     -26.181107      -712.4241
   3   1.0000     -24.888322      -677.2457
   4   1.0000     -24.888322      -677.2457
   5   1.0000     -24.887025      -677.2104
   6   1.0000      -4.031286      -109.6969
   7   1.0000      -2.739419       -74.5434
   8   1.0000      -2.739419       -74.5434
   9   1.0000      -2.739131       -74.5356
  10   1.0000      -1.460752       -39.7491
  11   1.0000      -0.684120       -18.6158
  12   1.0000      -0.666723       -18.1425
  13   1.0000      -0.666723       -18.1425
  14   1.0000      -0.655978       -17.8501
  15   1.0000      -0.655978       -17.8501
  16   1.0000      -0.534256       -14.5379
  17   1.0000      -0.534256       -14.5379
  18   1.0000      -0.528604       -14.3840
  19   1.0000      -0.290727        -7.9111
  20   0.0000       0.021013         0.5718
  21   0.0000       0.021013         0.5718
  22   0.0000       0.059052         1.6069
  23   0.0000       0.074833         2.0363
  24   0.0000       0.117045         3.1850

                 SPIN DOWN ORBITALS
  NO   OCC          E(Eh)            E(eV)
   0   1.0000    -240.539105     -6545.4018
   1   1.0000     -29.049765      -790.4843
   2   1.0000     -26.177132      -712.3160
   3   1.0000     -24.755896      -673.6422
   4   1.0000     -24.755896      -673.6422
   5   1.0000     -24.753333      -673.5724
   6   1.0000      -3.619129       -98.4815
   7   1.0000      -2.247434       -61.1558
   8   1.0000      -2.247434       -61.1558
   9   1.0000      -2.240305       -60.9618
  10   1.0000      -1.446851       -39.3708
  11   1.0000      -0.573350       -15.6017
  12   1.0000      -0.543737       -14.7958
  13   1.0000      -0.543737       -14.7958
  14   0.0000       0.004904         0.1335
  15   0.0000       0.044738         1.2174
  16   0.0000       0.044738         1.2174
  17   0.0000       0.065036         1.7697
  18   0.0000       0.119946         3.2639

E(0)                                       ...  -1249.414188463
E(0)                                       ...  -1249.414188463
E(CORR)                                    ...     -0.733857725
E(TOT)                                     ...  -1250.148046188
E(CCSD(T))                                 ...  -1250.169499312

MULLIKEN ATOMIC CHARGES AND SPIN DENSITIES
------------------------------------------
   0 Mn:    0.581027    5.934942
   1 F :   -0.581027    0.065058
Sum of atomic charges       :    0.0000000

LOEWDIN ATOMIC CHARGES AND SPIN DENSITIES
-----------------------------------------
   0 Mn:    0.113444    5.894944
   1 F :   -0.113444    0.105056

  Mayer bond orders larger than 0.100000
B(  0-Mn,  1-F ) :   0.6979

FINAL SINGLE POINT ENERGY     -1250.206533358595

DIPOLE MOMENT
-------------
                                X             Y             Z
Electronic contribution:      0.00000      -0.00000      -1.89426
Nuclear contribution   :      0.00000       0.00000       0.91162
                        -----------------------------------------
Total Dipole Moment    :      0.00000      -0.00000      -0.98264
                        -----------------------------------------
Magnitude (a.u.)       :      0.98264
Magnitude (Debye)      :      2.49767

Rotational constants in cm-1:     0.000000     0.357290     0.357290
Rotational constants in MHz :     0.000000 10711.297675 10711.297675

                             ****ORCA TERMINATED NORMALLY****
TOTAL RUN TIME: 0 days 0 hours 2 minutes 5 seconds 808 msec
