                         Program Version 4.2.0 -  RELEASE  -
|  1> #
|  2> # 27_MnCl ccsd(t)/cbs
|  3> #
|  4> ! ccsd(t) extrapolate(3/4,def2) verytightscf
|  5>
|  6> *xyz 0 7
|  7>   Mn  0.00000000000000      0.00000000000000     -0.11585879372688
|  8>   Cl  0.00000000000000      0.00000000000000      2.11585879372688
|  9> *
| 10>
| 11> %maxcore 5000
| 12> %pal
| 13> nprocs 24
| 14> end
| 15>
| 16>
| 17>                          ****END OF INPUT****
 Total Charge           Charge          ....    0
 Multiplicity           Mult            ....    7
 Number of Electrons    NEL             ....   42
E(0)                                       ...  -1609.438843959
E(0)                                       ...  -1609.438843959
E(CORR)                                    ...     -0.639771929
E(TOT)                                     ...  -1610.078615888
E(CCSD(T))                                 ...  -1610.097657843

CARTESIAN COORDINATES (ANGSTROEM)
---------------------------------
  Mn     0.000000    0.000000   -0.115859
  Cl     0.000000    0.000000    2.115859

 Multiplicity           Mult            ....    7
 Number of Electrons    NEL             ....   42
 Basis Dimension        Dim             ....  170

ORBITAL ENERGIES
----------------
                 SPIN UP ORBITALS
  NO   OCC          E(Eh)            E(eV)
   0   1.0000    -240.565837     -6546.1292
   1   1.0000    -104.777291     -2851.1350
   2   1.0000     -29.207238      -794.7694
   3   1.0000     -24.910709      -677.8548
   4   1.0000     -24.910709      -677.8548
   5   1.0000     -24.910076      -677.8376
   6   1.0000     -10.504177      -285.8332
   7   1.0000      -7.970943      -216.9004
   8   1.0000      -7.970203      -216.8802
   9   1.0000      -7.970203      -216.8802
  10   1.0000      -4.052976      -110.2871
  11   1.0000      -2.760854       -75.1267
  12   1.0000      -2.760364       -75.1133
  13   1.0000      -2.760364       -75.1133
  14   1.0000      -1.032741       -28.1023
  15   1.0000      -0.676004       -18.3950
  16   1.0000      -0.676004       -18.3950
  17   1.0000      -0.675876       -18.3915
  18   1.0000      -0.675876       -18.3915
  19   1.0000      -0.674669       -18.3587
  20   1.0000      -0.464731       -12.6460
  21   1.0000      -0.424770       -11.5586
  22   1.0000      -0.424770       -11.5586
  23   1.0000      -0.291334        -7.9276
  24   0.0000       0.018964         0.5160
  25   0.0000       0.018964         0.5160
  26   0.0000       0.056733         1.5438
  27   0.0000       0.072376         1.9694
  28   0.0000       0.108877         2.9627

                 SPIN DOWN ORBITALS
  NO   OCC          E(Eh)            E(eV)
   0   1.0000    -240.561855     -6546.0209
   1   1.0000    -104.776710     -2851.1192
   2   1.0000     -29.072473      -791.1022
   3   1.0000     -24.778199      -674.2491
   4   1.0000     -24.778199      -674.2491
   5   1.0000     -24.776570      -674.2047
   6   1.0000     -10.503507      -285.8149
   7   1.0000      -7.969911      -216.8723
   8   1.0000      -7.969452      -216.8598
   9   1.0000      -7.969452      -216.8598
  10   1.0000      -3.640256       -99.0564
  11   1.0000      -2.266946       -61.6868
  12   1.0000      -2.266946       -61.6868
  13   1.0000      -2.260925       -61.5229
  14   1.0000      -1.025168       -27.8962
  15   1.0000      -0.468917       -12.7599
  16   1.0000      -0.428710       -11.6658
  17   1.0000      -0.428710       -11.6658
  18   0.0000       0.003285         0.0894
  19   0.0000       0.044489         1.2106
  20   0.0000       0.044489         1.2106
  21   0.0000       0.061552         1.6749
  22   0.0000       0.117135         3.1874

E(0)                                       ...  -1609.474805619
E(0)                                       ...  -1609.474805619
E(CORR)                                    ...     -0.676351770
E(TOT)                                     ...  -1610.151157388
E(CCSD(T))                                 ...  -1610.174009691

MULLIKEN ATOMIC CHARGES AND SPIN DENSITIES
------------------------------------------
   0 Mn:    0.489663    5.939255
   1 Cl:   -0.489663    0.060745
Sum of atomic charges       :   -0.0000000

LOEWDIN ATOMIC CHARGES AND SPIN DENSITIES
-----------------------------------------
   0 Mn:   -0.244243    5.881845
   1 Cl:    0.244243    0.118155

  Mayer bond orders larger than 0.100000
B(  0-Mn,  1-Cl) :   0.8370

FINAL SINGLE POINT ENERGY     -1610.208881637901

DIPOLE MOMENT
-------------
                                X             Y             Z
Electronic contribution:      0.00000       0.00000      -3.35377
Nuclear contribution   :      0.00000       0.00000       2.22337
                        -----------------------------------------
Total Dipole Moment    :      0.00000       0.00000      -1.13040
                        -----------------------------------------
Magnitude (a.u.)       :      1.13040
Magnitude (Debye)      :      2.87325

Rotational constants in cm-1:     0.000000     0.157077     0.157077
Rotational constants in MHz :     0.000000  4709.038991  4709.038991

                             ****ORCA TERMINATED NORMALLY****
TOTAL RUN TIME: 0 days 0 hours 2 minutes 35 seconds 894 msec
