                         Program Version 4.2.0 -  RELEASE  -
|  1> #
|  2> # 28_MnBr ccsd(t)/cbs
|  3> #
|  4> ! ccsd(t) extrapolate(3/4,def2) verytightscf
|  5>
|  6> *xyz 0 7
|  7>   Mn  0.00000000000000      0.00000000000000     -0.18897622296313
|  8>   Br  0.00000000000000      0.00000000000000      2.18897622296313
|  9> *
| 10>
| 11> %maxcore 5000
| 12> %pal
| 13> nprocs 24
| 14> end
| 15>
| 16>
| 17>                          ****END OF INPUT****
 Total Charge           Charge          ....    0
 Multiplicity           Mult            ....    7
 Number of Electrons    NEL             ....   60
E(0)                                       ...  -3722.347794619
E(0)                                       ...  -3722.347794619
E(CORR)                                    ...     -0.712261020
E(TOT)                                     ...  -3723.060055640
E(CCSD(T))                                 ...  -3723.079852296

CARTESIAN COORDINATES (ANGSTROEM)
---------------------------------
  Mn     0.000000    0.000000   -0.188976
  Br     0.000000    0.000000    2.188976

 Multiplicity           Mult            ....    7
 Number of Electrons    NEL             ....   60
 Basis Dimension        Dim             ....  189

ORBITAL ENERGIES
----------------
                 SPIN UP ORBITALS
  NO   OCC          E(Eh)            E(eV)
   0   1.0000    -489.975694    -13332.9165
   1   1.0000    -240.571903     -6546.2943
   2   1.0000     -65.116649     -1771.9141
   3   1.0000     -58.471397     -1591.0876
   4   1.0000     -58.471189     -1591.0819
   5   1.0000     -58.471189     -1591.0819
   6   1.0000     -29.213201      -794.9316
   7   1.0000     -24.916589      -678.0149
   8   1.0000     -24.916589      -678.0149
   9   1.0000     -24.916137      -678.0026
  10   1.0000      -9.789570      -266.3877
  11   1.0000      -7.398015      -201.3102
  12   1.0000      -7.396515      -201.2694
  13   1.0000      -7.396515      -201.2694
  14   1.0000      -4.058746      -110.4441
  15   1.0000      -3.139628       -85.4336
  16   1.0000      -3.138901       -85.4138
  17   1.0000      -3.138901       -85.4138
  18   1.0000      -3.137440       -85.3741
  19   1.0000      -3.137440       -85.3741
  20   1.0000      -2.766560       -75.2819
  21   1.0000      -2.765967       -75.2658
  22   1.0000      -2.765967       -75.2658
  23   1.0000      -0.963276       -26.2121
  24   1.0000      -0.681191       -18.5361
  25   1.0000      -0.681191       -18.5361
  26   1.0000      -0.680283       -18.5114
  27   1.0000      -0.680283       -18.5114
  28   1.0000      -0.677218       -18.4280
  29   1.0000      -0.442478       -12.0404
  30   1.0000      -0.392676       -10.6852
  31   1.0000      -0.392676       -10.6852
  32   1.0000      -0.290198        -7.8967
  33   0.0000       0.017653         0.4804
  34   0.0000       0.017653         0.4804
  35   0.0000       0.056771         1.5448
  36   0.0000       0.071844         1.9550
  37   0.0000       0.106302         2.8926

                 SPIN DOWN ORBITALS
  NO   OCC          E(Eh)            E(eV)
   0   1.0000    -489.975496    -13332.9111
   1   1.0000    -240.567921     -6546.1859
   2   1.0000     -65.116488     -1771.9097
   3   1.0000     -58.471080     -1591.0790
   4   1.0000     -58.471054     -1591.0783
   5   1.0000     -58.471054     -1591.0783
   6   1.0000     -29.078354      -791.2622
   7   1.0000     -24.784005      -674.4071
   8   1.0000     -24.784005      -674.4071
   9   1.0000     -24.782563      -674.3678
  10   1.0000      -9.789133      -266.3758
  11   1.0000      -7.397398      -201.2934
  12   1.0000      -7.396178      -201.2602
  13   1.0000      -7.396178      -201.2602
  14   1.0000      -3.645665       -99.2036
  15   1.0000      -3.139321       -85.4253
  16   1.0000      -3.138638       -85.4067
  17   1.0000      -3.138638       -85.4067
  18   1.0000      -3.137251       -85.3689
  19   1.0000      -3.137251       -85.3689
  20   1.0000      -2.271968       -61.8234
  21   1.0000      -2.271968       -61.8234
  22   1.0000      -2.266253       -61.6679
  23   1.0000      -0.956315       -26.0227
  24   1.0000      -0.437427       -11.9030
  25   1.0000      -0.395779       -10.7697
  26   1.0000      -0.395779       -10.7697
  27   0.0000       0.002453         0.0668
  28   0.0000       0.044078         1.1994
  29   0.0000       0.044078         1.1994
  30   0.0000       0.061881         1.6839
  31   0.0000       0.115521         3.1435

E(0)                                       ...  -3722.419985856
E(0)                                       ...  -3722.419985856
E(CORR)                                    ...     -1.025559789
E(TOT)                                     ...  -3723.445545645
E(CCSD(T))                                 ...  -3723.471483357

MULLIKEN ATOMIC CHARGES AND SPIN DENSITIES
------------------------------------------
   0 Mn:    0.444386    5.934604
   1 Br:   -0.444386    0.065396
Sum of atomic charges       :    0.0000000

LOEWDIN ATOMIC CHARGES AND SPIN DENSITIES
-----------------------------------------
   0 Mn:   -0.349555    5.885592
   1 Br:    0.349555    0.114408

  Mayer bond orders larger than 0.100000
B(  0-Mn,  1-Br) :   0.9016

FINAL SINGLE POINT ENERGY     -3723.718048799615

DIPOLE MOMENT
-------------
                                X             Y             Z
Electronic contribution:      0.00000      -0.00000       1.31995
Nuclear contribution   :      0.00000       0.00000      -2.48612
                        -----------------------------------------
Total Dipole Moment    :      0.00000      -0.00000      -1.16617
                        -----------------------------------------
Magnitude (a.u.)       :      1.16617
Magnitude (Debye)      :      2.96416

Rotational constants in cm-1:     0.000000     0.091574     0.091574
Rotational constants in MHz :     0.000000  2745.330169  2745.330169

                             ****ORCA TERMINATED NORMALLY****
TOTAL RUN TIME: 0 days 0 hours 7 minutes 38 seconds 585 msec
