                         Program Version 4.2.0 -  RELEASE  -
|  1> #
|  2> # 29_MnO ccsd(t)/cbs
|  3> #
|  4> ! ccsd(t) extrapolate(3/4,def2) verytightscf
|  5>
|  6> *xyz 0 6
|  7>   Mn  0.00000000000000      0.00000000000000      0.18548662877309
|  8>   O   0.00000000000000      0.00000000000000      1.81451337122691
|  9> *
| 10>
| 11> %maxcore 5000
| 12> %pal
| 13> nprocs 24
| 14> end
| 15>
| 16>
| 17>                          ****END OF INPUT****
 Total Charge           Charge          ....    0
 Multiplicity           Mult            ....    6
 Number of Electrons    NEL             ....   33
E(0)                                       ...  -1224.684206191
E(0)                                       ...  -1224.684206191
E(CORR)                                    ...     -0.693897203
E(TOT)                                     ...  -1225.378103394
E(CCSD(T))                                 ...  -1225.408423826

CARTESIAN COORDINATES (ANGSTROEM)
---------------------------------
  Mn     0.000000    0.000000    0.185487
  O      0.000000    0.000000    1.814513

 Multiplicity           Mult            ....    6
 Number of Electrons    NEL             ....   33
 Basis Dimension        Dim             ....  157

ORBITAL ENERGIES
----------------
                 SPIN UP ORBITALS
  NO   OCC          E(Eh)            E(eV)
   0   1.0000    -240.534331     -6545.2719
   1   1.0000     -29.176874      -793.9431
   2   1.0000     -24.880178      -677.0241
   3   1.0000     -24.880178      -677.0241
   4   1.0000     -24.878382      -676.9752
   5   1.0000     -20.516350      -558.2783
   6   1.0000      -4.020503      -109.4034
   7   1.0000      -2.728062       -74.2343
   8   1.0000      -2.728040       -74.2337
   9   1.0000      -2.728040       -74.2337
  10   1.0000      -1.147677       -31.2299
  11   1.0000      -0.668076       -18.1793
  12   1.0000      -0.668076       -18.1793
  13   1.0000      -0.642430       -17.4814
  14   1.0000      -0.642430       -17.4814
  15   1.0000      -0.605954       -16.4888
  16   1.0000      -0.430905       -11.7255
  17   1.0000      -0.430905       -11.7255
  18   1.0000      -0.292534        -7.9603
  19   0.0000       0.031564         0.8589
  20   0.0000       0.031564         0.8589
  21   0.0000       0.053341         1.4515
  22   0.0000       0.066582         1.8118
  23   0.0000       0.098069         2.6686

                 SPIN DOWN ORBITALS
  NO   OCC          E(Eh)            E(eV)
   0   1.0000    -240.531362     -6545.1911
   1   1.0000     -29.045781      -790.3759
   2   1.0000     -24.752926      -673.5614
   3   1.0000     -24.749741      -673.4747
   4   1.0000     -24.749741      -673.4747
   5   1.0000     -20.548349      -559.1490
   6   1.0000      -3.621065       -98.5342
   7   1.0000      -2.265111       -61.6368
   8   1.0000      -2.243223       -61.0412
   9   1.0000      -2.243223       -61.0412
  10   1.0000      -1.270153       -34.5626
  11   1.0000      -0.618028       -16.8174
  12   1.0000      -0.503260       -13.6944
  13   1.0000      -0.503260       -13.6944
  14   0.0000       0.010165         0.2766
  15   0.0000       0.048703         1.3253
  16   0.0000       0.048703         1.3253
  17   0.0000       0.064212         1.7473
  18   0.0000       0.122336         3.3289

E(0)                                       ...  -1224.710728195
E(0)                                       ...  -1224.710728195
E(CORR)                                    ...     -0.729809330
E(TOT)                                     ...  -1225.440537525
E(CCSD(T))                                 ...  -1225.474663850

MULLIKEN ATOMIC CHARGES AND SPIN DENSITIES
------------------------------------------
   0 Mn:    0.626158    5.134692
   1 O :   -0.626158   -0.134692
Sum of atomic charges       :    0.0000000

LOEWDIN ATOMIC CHARGES AND SPIN DENSITIES
-----------------------------------------
   0 Mn:    0.057466    5.028008
   1 O :   -0.057466   -0.028008

  Mayer bond orders larger than 0.100000
B(  0-Mn,  1-O ) :   2.0186

FINAL SINGLE POINT ENERGY     -1225.507737689440

DIPOLE MOMENT
-------------
                                X             Y             Z
Electronic contribution:     -0.00000       0.00000      -3.76745
Nuclear contribution   :      0.00000       0.00000       1.71606
                        -----------------------------------------
Total Dipole Moment    :     -0.00000       0.00000      -2.05139
                        -----------------------------------------
Magnitude (a.u.)       :      2.05139
Magnitude (Debye)      :      5.21422

Rotational constants in cm-1:     0.000000     0.512677     0.512677
Rotational constants in MHz :     0.000000 15369.677147 15369.677147

                             ****ORCA TERMINATED NORMALLY****
TOTAL RUN TIME: 0 days 0 hours 2 minutes 53 seconds 866 msec
