                         Program Version 4.2.0 -  RELEASE  -
|  1> #
|  2> # 30_MnS ccsd(t)/cbs
|  3> #
|  4> ! ccsd(t) extrapolate(3/4,def2) verytightscf
|  5>
|  6> *xyz 0 6
|  7>   Mn  0.00000000000000      0.00000000000000     -0.02260858554296
|  8>   S   0.00000000000000      0.00000000000000      2.02260858554296
|  9> *
| 10>
| 11> %maxcore 5000
| 12> %pal
| 13> nprocs 24
| 14> end
| 15>
| 16>
| 17>                          ****END OF INPUT****
 Total Charge           Charge          ....    0
 Multiplicity           Mult            ....    6
 Number of Electrons    NEL             ....   41
E(0)                                       ...  -1547.377768746
E(0)                                       ...  -1547.377768746
E(CORR)                                    ...     -0.642720203
E(TOT)                                     ...  -1548.020488949
E(CCSD(T))                                 ...  -1548.047770511

CARTESIAN COORDINATES (ANGSTROEM)
---------------------------------
  Mn     0.000000    0.000000   -0.022609
  S      0.000000    0.000000    2.022609

 Multiplicity           Mult            ....    6
 Number of Electrons    NEL             ....   41
 Basis Dimension        Dim             ....  170

ORBITAL ENERGIES
----------------
                 SPIN UP ORBITALS
  NO   OCC          E(Eh)            E(eV)
   0   1.0000    -240.564926     -6546.1044
   1   1.0000     -91.899095     -2500.7015
   2   1.0000     -29.206540      -794.7504
   3   1.0000     -24.909627      -677.8254
   4   1.0000     -24.909627      -677.8254
   5   1.0000     -24.907706      -677.7731
   6   1.0000      -8.903912      -242.2878
   7   1.0000      -6.583887      -179.1567
   8   1.0000      -6.583887      -179.1567
   9   1.0000      -6.573213      -178.8662
  10   1.0000      -4.048814      -110.1738
  11   1.0000      -2.755030       -74.9682
  12   1.0000      -2.755030       -74.9682
  13   1.0000      -2.754352       -74.9497
  14   1.0000      -0.830868       -22.6091
  15   1.0000      -0.675855       -18.3910
  16   1.0000      -0.675855       -18.3910
  17   1.0000      -0.668664       -18.1953
  18   1.0000      -0.668664       -18.1953
  19   1.0000      -0.640826       -17.4378
  20   1.0000      -0.327440        -8.9101
  21   1.0000      -0.327440        -8.9101
  22   1.0000      -0.315376        -8.5818
  23   0.0000      -0.023913        -0.6507
  24   0.0000       0.028908         0.7866
  25   0.0000       0.028908         0.7866
  26   0.0000       0.061834         1.6826
  27   0.0000       0.077522         2.1095

                 SPIN DOWN ORBITALS
  NO   OCC          E(Eh)            E(eV)
   0   1.0000    -240.561775     -6546.0187
   1   1.0000     -91.906426     -2500.9010
   2   1.0000     -29.074605      -791.1602
   3   1.0000     -24.781498      -674.3388
   4   1.0000     -24.778604      -674.2601
   5   1.0000     -24.778604      -674.2601
   6   1.0000      -8.911014      -242.4810
   7   1.0000      -6.604341      -179.7133
   8   1.0000      -6.588751      -179.2890
   9   1.0000      -6.588751      -179.2890
  10   1.0000      -3.645550       -99.2005
  11   1.0000      -2.278994       -62.0146
  12   1.0000      -2.267401       -61.6991
  13   1.0000      -2.267401       -61.6991
  14   1.0000      -0.893801       -24.3216
  15   1.0000      -0.445787       -12.1305
  16   1.0000      -0.357533        -9.7290
  17   1.0000      -0.357533        -9.7290
  18   0.0000      -0.005216        -0.1419
  19   0.0000       0.045841         1.2474
  20   0.0000       0.045841         1.2474
  21   0.0000       0.059356         1.6151
  22   0.0000       0.110882         3.0173

E(0)                                       ...  -1547.412158889
E(0)                                       ...  -1547.412158889
E(CORR)                                    ...     -0.676057047
E(TOT)                                     ...  -1548.088215936
E(CCSD(T))                                 ...  -1548.119534139

MULLIKEN ATOMIC CHARGES AND SPIN DENSITIES
------------------------------------------
   0 Mn:    0.458992    5.150626
   1 S :   -0.458992   -0.150626
Sum of atomic charges       :   -0.0000000

LOEWDIN ATOMIC CHARGES AND SPIN DENSITIES
-----------------------------------------
   0 Mn:   -0.305182    5.015412
   1 S :    0.305182   -0.015412

  Mayer bond orders larger than 0.100000
B(  0-Mn,  1-S ) :   2.0339

FINAL SINGLE POINT ENERGY     -1548.151955034451

DIPOLE MOMENT
-------------
                                X             Y             Z
Electronic contribution:     -0.00000       0.00000      -5.81135
Nuclear contribution   :      0.00000       0.00000       3.44465
                        -----------------------------------------
Total Dipole Moment    :     -0.00000       0.00000      -2.36671
                        -----------------------------------------
Magnitude (a.u.)       :      2.36671
Magnitude (Debye)      :      6.01569

Rotational constants in cm-1:     0.000000     0.199061     0.199061
Rotational constants in MHz :     0.000000  5967.684062  5967.684062

                             ****ORCA TERMINATED NORMALLY****
TOTAL RUN TIME: 0 days 0 hours 3 minutes 6 seconds 940 msec
