                         Program Version 4.2.0 -  RELEASE  -
|  1> #
|  2> # 31_FeH ccsd(t)/cbs
|  3> #
|  4> ! ccsd(t) extrapolate(3/4,def2) verytightscf
|  5>
|  6> *xyz 0 4
|  7>   Fe  0.00000000000000      0.00000000000000      0.22838748047068
|  8>   H   0.00000000000000      0.00000000000000      1.77161251952932
|  9> *
| 10>
| 11> %maxcore 5000
| 12> %pal
| 13> nprocs 24
| 14> end
| 15>
| 16>
| 17>                          ****END OF INPUT****
 Total Charge           Charge          ....    0
 Multiplicity           Mult            ....    4
 Number of Electrons    NEL             ....   27
E(0)                                       ...  -1262.889333492
E(0)                                       ...  -1262.889333492
E(CORR)                                    ...     -0.591918322
E(TOT)                                     ...  -1263.481251814
E(CCSD(T))                                 ...  -1263.501865288

CARTESIAN COORDINATES (ANGSTROEM)
---------------------------------
  Fe     0.000000    0.000000    0.228387
  H      0.000000    0.000000    1.771613

 Multiplicity           Mult            ....    4
 Number of Electrons    NEL             ....   27
 Basis Dimension        Dim             ....  130

ORBITAL ENERGIES
----------------
                 SPIN UP ORBITALS
  NO   OCC          E(Eh)            E(eV)
   0   1.0000    -261.196669     -7107.5227
   1   1.0000     -31.781182      -864.8099
   2   1.0000     -27.272843      -742.1318
   3   1.0000     -27.272843      -742.1318
   4   1.0000     -27.240391      -741.2487
   5   1.0000      -4.104055      -111.6770
   6   1.0000      -2.738831       -74.5274
   7   1.0000      -2.738831       -74.5274
   8   1.0000      -2.669317       -72.6358
   9   1.0000      -0.501078       -13.6350
  10   1.0000      -0.501078       -13.6350
  11   1.0000      -0.453926       -12.3519
  12   1.0000      -0.429856       -11.6970
  13   1.0000      -0.429856       -11.6970
  14   1.0000      -0.295238        -8.0338
  15   0.0000       0.012782         0.3478
  16   0.0000       0.039076         1.0633
  17   0.0000       0.039076         1.0633
  18   0.0000       0.093291         2.5386
  19   0.0000       0.119866         3.2617

                 SPIN DOWN ORBITALS
  NO   OCC          E(Eh)            E(eV)
   0   1.0000    -261.194985     -7107.4769
   1   1.0000     -31.696898      -862.5164
   2   1.0000     -27.181786      -739.6540
   3   1.0000     -27.178249      -739.5577
   4   1.0000     -27.178249      -739.5577
   5   1.0000      -3.854369      -104.8827
   6   1.0000      -2.454394       -66.7875
   7   1.0000      -2.396577       -65.2142
   8   1.0000      -2.396577       -65.2142
   9   1.0000      -0.381343       -10.3769
  10   1.0000      -0.318197        -8.6586
  11   1.0000      -0.318197        -8.6586
  12   0.0000       0.010856         0.2954
  13   0.0000       0.048223         1.3122
  14   0.0000       0.048223         1.3122
  15   0.0000       0.082041         2.2324
  16   0.0000       0.128931         3.5084

E(0)                                       ...  -1262.915030346
E(0)                                       ...  -1262.915030346
E(CORR)                                    ...     -0.614516662
E(TOT)                                     ...  -1263.529547008
E(CCSD(T))                                 ...  -1263.553906884

MULLIKEN ATOMIC CHARGES AND SPIN DENSITIES
------------------------------------------
   0 Fe:    0.181144    3.137949
   1 H :   -0.181144   -0.137949
Sum of atomic charges       :   -0.0000000

LOEWDIN ATOMIC CHARGES AND SPIN DENSITIES
-----------------------------------------
   0 Fe:    0.217962    3.049284
   1 H :   -0.217962   -0.049284

  Mayer bond orders larger than 0.100000
B(  0-Fe,  1-H ) :   0.9312

FINAL SINGLE POINT ENERGY     -1263.576960943463

DIPOLE MOMENT
-------------
                                X             Y             Z
Electronic contribution:     -0.00000       0.00000      -2.66686
Nuclear contribution   :      0.00000       0.00000       1.52035
                        -----------------------------------------
Total Dipole Moment    :     -0.00000       0.00000      -1.14651
                        -----------------------------------------
Magnitude (a.u.)       :      1.14651
Magnitude (Debye)      :      2.91419

Rotational constants in cm-1:     0.000000     7.149016     7.149016
Rotational constants in MHz :     0.000000 214322.097628 214322.097628

                             ****ORCA TERMINATED NORMALLY****
TOTAL RUN TIME: 0 days 0 hours 1 minutes 33 seconds 974 msec
