                         Program Version 4.2.0 -  RELEASE  -
|  1> #
|  2> # 32_FeF ccsd(t)/cbs
|  3> #
|  4> ! ccsd(t) extrapolate(3/4,def2) verytightscf
|  5>
|  6> *xyz 0 6
|  7>   Fe  0.00000000000000      0.00000000000000      0.10964273788681
|  8>   F   0.00000000000000      0.00000000000000      1.89035726211319
|  9> *
| 10>
| 11> %maxcore 5000
| 12> %pal
| 13> nprocs 24
| 14> end
| 15>
| 16>
| 17>                          ****END OF INPUT****
 Total Charge           Charge          ....    0
 Multiplicity           Mult            ....    6
 Number of Electrons    NEL             ....   35
E(0)                                       ...  -1361.970920313
E(0)                                       ...  -1361.970920313
E(CORR)                                    ...     -0.752712762
E(TOT)                                     ...  -1362.723633076
E(CCSD(T))                                 ...  -1362.743406379

CARTESIAN COORDINATES (ANGSTROEM)
---------------------------------
  Fe     0.000000    0.000000    0.109643
  F      0.000000    0.000000    1.890357

 Multiplicity           Mult            ....    6
 Number of Electrons    NEL             ....   35
 Basis Dimension        Dim             ....  157

ORBITAL ENERGIES
----------------
                 SPIN UP ORBITALS
  NO   OCC          E(Eh)            E(eV)
   0   1.0000    -261.382954     -7112.5918
   1   1.0000     -32.004744      -870.8934
   2   1.0000     -27.504457      -748.4343
   3   1.0000     -27.472269      -747.5584
   4   1.0000     -27.472269      -747.5584
   5   1.0000     -26.196336      -712.8385
   6   1.0000      -4.356998      -118.5599
   7   1.0000      -3.017561       -82.1120
   8   1.0000      -2.943679       -80.1016
   9   1.0000      -2.943679       -80.1016
  10   1.0000      -1.480305       -40.2811
  11   1.0000      -0.746646       -20.3173
  12   1.0000      -0.727899       -19.8071
  13   1.0000      -0.727899       -19.8071
  14   1.0000      -0.692547       -18.8452
  15   1.0000      -0.642509       -17.4836
  16   1.0000      -0.562099       -15.2955
  17   1.0000      -0.554934       -15.1005
  18   1.0000      -0.554934       -15.1005
  19   1.0000      -0.298013        -8.1093
  20   0.0000       0.025933         0.7057
  21   0.0000       0.025933         0.7057
  22   0.0000       0.061515         1.6739
  23   0.0000       0.080320         2.1856
  24   0.0000       0.126655         3.4464

                 SPIN DOWN ORBITALS
  NO   OCC          E(Eh)            E(eV)
   0   1.0000    -261.378647     -7112.4746
   1   1.0000     -31.880326      -867.5078
   2   1.0000     -27.362144      -744.5618
   3   1.0000     -27.362144      -744.5618
   4   1.0000     -27.359133      -744.4799
   5   1.0000     -26.191229      -712.6996
   6   1.0000      -4.000265      -108.8527
   7   1.0000      -2.564946       -69.7957
   8   1.0000      -2.564946       -69.7957
   9   1.0000      -2.501112       -68.0587
  10   1.0000      -1.463434       -39.8221
  11   1.0000      -0.591936       -16.1074
  12   1.0000      -0.557841       -15.1796
  13   1.0000      -0.557841       -15.1796
  14   1.0000      -0.499427       -13.5901
  15   0.0000       0.003324         0.0904
  16   0.0000       0.047226         1.2851
  17   0.0000       0.047226         1.2851
  18   0.0000       0.067028         1.8239
  19   0.0000       0.123707         3.3662

E(0)                                       ...  -1362.002957603
E(0)                                       ...  -1362.002957603
E(CORR)                                    ...     -0.796145780
E(TOT)                                     ...  -1362.799103383
E(CCSD(T))                                 ...  -1362.823073794

MULLIKEN ATOMIC CHARGES AND SPIN DENSITIES
------------------------------------------
   0 Fe:    0.559925    4.900291
   1 F :   -0.559925    0.099709
Sum of atomic charges       :    0.0000000

LOEWDIN ATOMIC CHARGES AND SPIN DENSITIES
-----------------------------------------
   0 Fe:    0.070788    4.862770
   1 F :   -0.070788    0.137230

  Mayer bond orders larger than 0.100000
B(  0-Fe,  1-F ) :   0.7316

FINAL SINGLE POINT ENERGY     -1362.862768116296

DIPOLE MOMENT
-------------
                                X             Y             Z
Electronic contribution:      0.00000       0.00000      -1.24540
Nuclear contribution   :      0.00000       0.00000       0.39123
                        -----------------------------------------
Total Dipole Moment    :      0.00000       0.00000      -0.85417
                        -----------------------------------------
Magnitude (a.u.)       :      0.85417
Magnitude (Debye)      :      2.17114

Rotational constants in cm-1:     0.000000     0.375023     0.375023
Rotational constants in MHz :     0.000000 11242.894653 11242.894653

                             ****ORCA TERMINATED NORMALLY****
TOTAL RUN TIME: 0 days 0 hours 2 minutes 18 seconds 378 msec
