                         Program Version 4.2.0 -  RELEASE  -
|  1> #
|  2> # 33_FeCl ccsd(t)/cbs
|  3> #
|  4> ! ccsd(t) extrapolate(3/4,def2) verytightscf
|  5>
|  6> *xyz 0 6
|  7>   Fe  0.00000000000000      0.00000000000000     -0.08894892709089
|  8>   Cl  0.00000000000000      0.00000000000000      2.08894892709089
|  9> *
| 10>
| 11> %maxcore 5000
| 12> %pal
| 13> nprocs 24
| 14> end
| 15>
| 16>
| 17>                          ****END OF INPUT****
 Total Charge           Charge          ....    0
 Multiplicity           Mult            ....    6
 Number of Electrons    NEL             ....   43
E(0)                                       ...  -1722.019339806
E(0)                                       ...  -1722.019339806
E(CORR)                                    ...     -0.700340671
E(TOT)                                     ...  -1722.719680477
E(CCSD(T))                                 ...  -1722.740735513

CARTESIAN COORDINATES (ANGSTROEM)
---------------------------------
  Fe     0.000000    0.000000   -0.088949
  Cl     0.000000    0.000000    2.088949

 Multiplicity           Mult            ....    6
 Number of Electrons    NEL             ....   43
 Basis Dimension        Dim             ....  170

ORBITAL ENERGIES
----------------
                 SPIN UP ORBITALS
  NO   OCC          E(Eh)            E(eV)
   0   1.0000    -261.404602     -7113.1809
   1   1.0000    -104.786213     -2851.3778
   2   1.0000     -32.026330      -871.4807
   3   1.0000     -27.526511      -749.0344
   4   1.0000     -27.493492      -748.1359
   5   1.0000     -27.493492      -748.1359
   6   1.0000     -10.513339      -286.0825
   7   1.0000      -7.980346      -217.1562
   8   1.0000      -7.979378      -217.1299
   9   1.0000      -7.979378      -217.1299
  10   1.0000      -4.377504      -119.1179
  11   1.0000      -3.038221       -82.6742
  12   1.0000      -2.963335       -80.6365
  13   1.0000      -2.963335       -80.6365
  14   1.0000      -1.046068       -28.4650
  15   1.0000      -0.744810       -20.2673
  16   1.0000      -0.739568       -20.1247
  17   1.0000      -0.739568       -20.1247
  18   1.0000      -0.711316       -19.3559
  19   1.0000      -0.661189       -17.9919
  20   1.0000      -0.481713       -13.1081
  21   1.0000      -0.434877       -11.8336
  22   1.0000      -0.434877       -11.8336
  23   1.0000      -0.297771        -8.1028
  24   0.0000       0.024699         0.6721
  25   0.0000       0.024699         0.6721
  26   0.0000       0.060311         1.6412
  27   0.0000       0.078144         2.1264
  28   0.0000       0.118019         3.2115

                 SPIN DOWN ORBITALS
  NO   OCC          E(Eh)            E(eV)
   0   1.0000    -261.400342     -7113.0649
   1   1.0000    -104.785312     -2851.3533
   2   1.0000     -31.902229      -868.1038
   3   1.0000     -27.383596      -745.1455
   4   1.0000     -27.383596      -745.1455
   5   1.0000     -27.381571      -745.0904
   6   1.0000     -10.512352      -286.0557
   7   1.0000      -7.978583      -217.1083
   8   1.0000      -7.978204      -217.0980
   9   1.0000      -7.978204      -217.0980
  10   1.0000      -4.020764      -109.4105
  11   1.0000      -2.583887       -70.3111
  12   1.0000      -2.583887       -70.3111
  13   1.0000      -2.521357       -68.6096
  14   1.0000      -1.035649       -28.1814
  15   1.0000      -0.517858       -14.0916
  16   1.0000      -0.483719       -13.1627
  17   1.0000      -0.437117       -11.8946
  18   1.0000      -0.437117       -11.8946
  19   0.0000       0.002656         0.0723
  20   0.0000       0.047305         1.2872
  21   0.0000       0.047305         1.2872
  22   0.0000       0.064227         1.7477
  23   0.0000       0.122111         3.3228

E(0)                                       ...  -1722.058859501
E(0)                                       ...  -1722.058859501
E(CORR)                                    ...     -0.739189527
E(TOT)                                     ...  -1722.798049029
E(CCSD(T))                                 ...  -1722.823529198

MULLIKEN ATOMIC CHARGES AND SPIN DENSITIES
------------------------------------------
   0 Fe:    0.453562    4.899406
   1 Cl:   -0.453562    0.100594
Sum of atomic charges       :   -0.0000000

LOEWDIN ATOMIC CHARGES AND SPIN DENSITIES
-----------------------------------------
   0 Fe:   -0.270586    4.846544
   1 Cl:    0.270586    0.153456

  Mayer bond orders larger than 0.100000
B(  0-Fe,  1-Cl) :   0.8861

FINAL SINGLE POINT ENERGY     -1722.861027372478

DIPOLE MOMENT
-------------
                                X             Y             Z
Electronic contribution:     -0.00000      -0.00000      -2.17009
Nuclear contribution   :      0.00000       0.00000       1.24736
                        -----------------------------------------
Total Dipole Moment    :     -0.00000      -0.00000      -0.92273
                        -----------------------------------------
Magnitude (a.u.)       :      0.92273
Magnitude (Debye)      :      2.34539

Rotational constants in cm-1:     0.000000     0.163882     0.163882
Rotational constants in MHz :     0.000000  4913.053230  4913.053230

                             ****ORCA TERMINATED NORMALLY****
TOTAL RUN TIME: 0 days 0 hours 2 minutes 39 seconds 390 msec
