                         Program Version 4.2.0 -  RELEASE  -
|  1> #
|  2> # 34_FeBr ccsd(t)/cbs
|  3> #
|  4> ! ccsd(t) extrapolate(3/4,def2) verytightscf
|  5>
|  6> *xyz 0 6
|  7>   Fe  0.00000000000000      0.00000000000000     -0.16252996889250
|  8>   Br  0.00000000000000      0.00000000000000      2.16252996889250
|  9> *
| 10>
| 11> %maxcore 5000
| 12> %pal
| 13> nprocs 24
| 14> end
| 15>
| 16>
| 17>                          ****END OF INPUT****
 Total Charge           Charge          ....    0
 Multiplicity           Mult            ....    6
 Number of Electrons    NEL             ....   61
E(0)                                       ...  -3834.927229990
E(0)                                       ...  -3834.927229990
E(CORR)                                    ...     -0.772849729
E(TOT)                                     ...  -3835.700079719
E(CCSD(T))                                 ...  -3835.721867588

CARTESIAN COORDINATES (ANGSTROEM)
---------------------------------
  Fe     0.000000    0.000000   -0.162530
  Br     0.000000    0.000000    2.162530

 Multiplicity           Mult            ....    6
 Number of Electrons    NEL             ....   61
 Basis Dimension        Dim             ....  189

ORBITAL ENERGIES
----------------
                 SPIN UP ORBITALS
  NO   OCC          E(Eh)            E(eV)
   0   1.0000    -489.983262    -13333.1224
   1   1.0000    -261.410751     -7113.3482
   2   1.0000     -65.124275     -1772.1216
   3   1.0000     -58.479087     -1591.2969
   4   1.0000     -58.478814     -1591.2894
   5   1.0000     -58.478814     -1591.2894
   6   1.0000     -32.032375      -871.6452
   7   1.0000     -27.532682      -749.2024
   8   1.0000     -27.499433      -748.2976
   9   1.0000     -27.499433      -748.2976
  10   1.0000      -9.797389      -266.6005
  11   1.0000      -7.406071      -201.5294
  12   1.0000      -7.404270      -201.4804
  13   1.0000      -7.404270      -201.4804
  14   1.0000      -4.383360      -119.2773
  15   1.0000      -3.147621       -85.6511
  16   1.0000      -3.146745       -85.6273
  17   1.0000      -3.146745       -85.6273
  18   1.0000      -3.145043       -85.5810
  19   1.0000      -3.145042       -85.5810
  20   1.0000      -3.044002       -82.8315
  21   1.0000      -2.968996       -80.7905
  22   1.0000      -2.968996       -80.7905
  23   1.0000      -0.975039       -26.5321
  24   1.0000      -0.748088       -20.3565
  25   1.0000      -0.744183       -20.2502
  26   1.0000      -0.744183       -20.2502
  27   1.0000      -0.716711       -19.5027
  28   1.0000      -0.666565       -18.1382
  29   1.0000      -0.456539       -12.4230
  30   1.0000      -0.400878       -10.9084
  31   1.0000      -0.400878       -10.9084
  32   1.0000      -0.296668        -8.0727
  33   0.0000       0.023511         0.6398
  34   0.0000       0.023511         0.6398
  35   0.0000       0.060921         1.6577
  36   0.0000       0.077415         2.1066
  37   0.0000       0.115263         3.1365

                 SPIN DOWN ORBITALS
  NO   OCC          E(Eh)            E(eV)
   0   1.0000    -489.982938    -13333.1136
   1   1.0000    -261.406498     -7113.2325
   2   1.0000     -65.124043     -1772.1153
   3   1.0000     -58.478578     -1591.2830
   4   1.0000     -58.478575     -1591.2829
   5   1.0000     -58.478575     -1591.2829
   6   1.0000     -31.908229      -868.2671
   7   1.0000     -27.389513      -745.3065
   8   1.0000     -27.389513      -745.3065
   9   1.0000     -27.387685      -745.2568
  10   1.0000      -9.796713      -266.5821
  11   1.0000      -7.404999      -201.5003
  12   1.0000      -7.403706      -201.4651
  13   1.0000      -7.403706      -201.4651
  14   1.0000      -4.026316      -109.5616
  15   1.0000      -3.147116       -85.6374
  16   1.0000      -3.146311       -85.6155
  17   1.0000      -3.146311       -85.6155
  18   1.0000      -3.144747       -85.5729
  19   1.0000      -3.144744       -85.5728
  20   1.0000      -2.589057       -70.4518
  21   1.0000      -2.589057       -70.4518
  22   1.0000      -2.526784       -68.7573
  23   1.0000      -0.965088       -26.2614
  24   1.0000      -0.522992       -14.2313
  25   1.0000      -0.450752       -12.2656
  26   1.0000      -0.402638       -10.9563
  27   1.0000      -0.402638       -10.9563
  28   0.0000       0.001862         0.0507
  29   0.0000       0.046887         1.2758
  30   0.0000       0.046887         1.2758
  31   0.0000       0.064907         1.7662
  32   0.0000       0.120329         3.2743

E(0)                                       ...  -3835.002986766
E(0)                                       ...  -3835.002986766
E(CORR)                                    ...     -1.088423849
E(TOT)                                     ...  -3836.091410615
E(CCSD(T))                                 ...  -3836.119990919

MULLIKEN ATOMIC CHARGES AND SPIN DENSITIES
------------------------------------------
   0 Fe:    0.410429    4.892628
   1 Br:   -0.410429    0.107372
Sum of atomic charges       :   -0.0000000

LOEWDIN ATOMIC CHARGES AND SPIN DENSITIES
-----------------------------------------
   0 Fe:   -0.364585    4.848643
   1 Br:    0.364585    0.151357

  Mayer bond orders larger than 0.100000
B(  0-Fe,  1-Br) :   0.9425

FINAL SINGLE POINT ENERGY     -3836.369215421351

DIPOLE MOMENT
-------------
                                X             Y             Z
Electronic contribution:      0.00000      -0.00000       3.02676
Nuclear contribution   :      0.00000       0.00000      -3.96973
                        -----------------------------------------
Total Dipole Moment    :      0.00000      -0.00000      -0.94297
                        -----------------------------------------
Magnitude (a.u.)       :      0.94297
Magnitude (Debye)      :      2.39683

Rotational constants in cm-1:     0.000000     0.094863     0.094863
Rotational constants in MHz :     0.000000  2843.931812  2843.931812

                             ****ORCA TERMINATED NORMALLY****
TOTAL RUN TIME: 0 days 0 hours 7 minutes 10 seconds 148 msec
