                         Program Version 4.2.0 -  RELEASE  -
|  1> #
|  2> # 35_FeO ccsd(t)/cbs
|  3> #
|  4> ! ccsd(t) extrapolate(3/4,def2) verytightscf
|  5>
|  6> *xyz 0 5
|  7>   Fe  0.00000000000000      0.00000000000000      0.19611340956582
|  8>   O   0.00000000000000      0.00000000000000      1.80388659043418
|  9> *
| 10>
| 11> %maxcore 5000
| 12> %pal
| 13> nprocs 24
| 14> end
| 15>
| 16>
| 17>                          ****END OF INPUT****
 Total Charge           Charge          ....    0
 Multiplicity           Mult            ....    5
 Number of Electrons    NEL             ....   34
E(0)                                       ...  -1337.266737939
E(0)                                       ...  -1337.266737939
E(CORR)                                    ...     -0.760064224
E(TOT)                                     ...  -1338.026802163
E(CCSD(T))                                 ...  -1338.063266618

CARTESIAN COORDINATES (ANGSTROEM)
---------------------------------
  Fe     0.000000    0.000000    0.196113
  O      0.000000    0.000000    1.803887

 Multiplicity           Mult            ....    5
 Number of Electrons    NEL             ....   34
 Basis Dimension        Dim             ....  157

ORBITAL ENERGIES
----------------
                 SPIN UP ORBITALS
  NO   OCC          E(Eh)            E(eV)
   0   1.0000    -261.370879     -7112.2632
   1   1.0000     -31.992793      -870.5682
   2   1.0000     -27.491474      -748.0810
   3   1.0000     -27.460024      -747.2252
   4   1.0000     -27.460024      -747.2252
   5   1.0000     -20.529015      -558.6229
   6   1.0000      -4.342473      -118.1647
   7   1.0000      -3.002466       -81.7013
   8   1.0000      -2.928638       -79.6923
   9   1.0000      -2.928638       -79.6923
  10   1.0000      -1.166261       -31.7356
  11   1.0000      -0.724700       -19.7201
  12   1.0000      -0.724700       -19.7201
  13   1.0000      -0.676539       -18.4096
  14   1.0000      -0.675868       -18.3913
  15   1.0000      -0.625763       -17.0279
  16   1.0000      -0.451838       -12.2951
  17   1.0000      -0.451838       -12.2951
  18   1.0000      -0.298161        -8.1134
  19   0.0000       0.035498         0.9659
  20   0.0000       0.035498         0.9659
  21   0.0000       0.053944         1.4679
  22   0.0000       0.066856         1.8192
  23   0.0000       0.098130         2.6702

                 SPIN DOWN ORBITALS
  NO   OCC          E(Eh)            E(eV)
   0   1.0000    -261.367570     -7112.1732
   1   1.0000     -31.872159      -867.2855
   2   1.0000     -27.354195      -744.3455
   3   1.0000     -27.352136      -744.2895
   4   1.0000     -27.352136      -744.2895
   5   1.0000     -20.559186      -559.4439
   6   1.0000      -3.997815      -108.7861
   7   1.0000      -2.557384       -69.5900
   8   1.0000      -2.557384       -69.5900
   9   1.0000      -2.518266       -68.5255
  10   1.0000      -1.286005       -34.9940
  11   1.0000      -0.638001       -17.3609
  12   1.0000      -0.512456       -13.9446
  13   1.0000      -0.512456       -13.9446
  14   1.0000      -0.487217       -13.2578
  15   0.0000       0.008886         0.2418
  16   0.0000       0.051246         1.3945
  17   0.0000       0.051246         1.3945
  18   0.0000       0.065836         1.7915
  19   0.0000       0.125202         3.4069

E(0)                                       ...  -1337.296912857
E(0)                                       ...  -1337.296912857
E(CORR)                                    ...     -0.798953586
E(TOT)                                     ...  -1338.095866443
E(CCSD(T))                                 ...  -1338.137008778

MULLIKEN ATOMIC CHARGES AND SPIN DENSITIES
------------------------------------------
   0 Fe:    0.625731    3.873188
   1 O :   -0.625731    0.126812
Sum of atomic charges       :   -0.0000000

LOEWDIN ATOMIC CHARGES AND SPIN DENSITIES
-----------------------------------------
   0 Fe:    0.051739    3.796339
   1 O :   -0.051739    0.203661

  Mayer bond orders larger than 0.100000
B(  0-Fe,  1-O ) :   2.2358

FINAL SINGLE POINT ENERGY     -1338.173437038853

DIPOLE MOMENT
-------------
                                X             Y             Z
Electronic contribution:     -0.00000       0.00000      -3.59328
Nuclear contribution   :      0.00000       0.00000       1.30353
                        -----------------------------------------
Total Dipole Moment    :     -0.00000       0.00000      -2.28975
                        -----------------------------------------
Magnitude (a.u.)       :      2.28975
Magnitude (Debye)      :      5.82008

Rotational constants in cm-1:     0.000000     0.524387     0.524387
Rotational constants in MHz :     0.000000 15720.731712 15720.731712

                             ****ORCA TERMINATED NORMALLY****
TOTAL RUN TIME: 0 days 0 hours 3 minutes 30 seconds 622 msec
