                         Program Version 4.2.0 -  RELEASE  -
|  1> #
|  2> # 36_FeS ccsd(t)/cbs
|  3> #
|  4> ! ccsd(t) extrapolate(3/4,def2) verytightscf
|  5>
|  6> *xyz 0 5
|  7>   Fe  0.00000000000000      0.00000000000000     -0.00599090985654
|  8>   S   0.00000000000000      0.00000000000000      2.00599090985654
|  9> *
| 10>
| 11> %maxcore 5000
| 12> %pal
| 13> nprocs 24
| 14> end
| 15>
| 16>
| 17>                          ****END OF INPUT****
 Total Charge           Charge          ....    0
 Multiplicity           Mult            ....    5
 Number of Electrons    NEL             ....   42
E(0)                                       ...  -1659.954953363
E(0)                                       ...  -1659.954953363
E(CORR)                                    ...     -0.714057932
E(TOT)                                     ...  -1660.669011295
E(CCSD(T))                                 ...  -1660.701874363

CARTESIAN COORDINATES (ANGSTROEM)
---------------------------------
  Fe     0.000000    0.000000   -0.005991
  S      0.000000    0.000000    2.005991

 Multiplicity           Mult            ....    5
 Number of Electrons    NEL             ....   42
 Basis Dimension        Dim             ....  170

ORBITAL ENERGIES
----------------
                 SPIN UP ORBITALS
  NO   OCC          E(Eh)            E(eV)
   0   1.0000    -261.400067     -7113.0574
   1   1.0000     -91.900361     -2500.7360
   2   1.0000     -32.020917      -871.3335
   3   1.0000     -27.519306      -748.8384
   4   1.0000     -27.487915      -747.9842
   5   1.0000     -27.487915      -747.9842
   6   1.0000      -8.905315      -242.3259
   7   1.0000      -6.585543      -179.2017
   8   1.0000      -6.585543      -179.2017
   9   1.0000      -6.575244      -178.9215
  10   1.0000      -4.368987      -118.8862
  11   1.0000      -3.027337       -82.3780
  12   1.0000      -2.953797       -80.3769
  13   1.0000      -2.953797       -80.3769
  14   1.0000      -0.847143       -23.0519
  15   1.0000      -0.734912       -19.9980
  16   1.0000      -0.734912       -19.9980
  17   1.0000      -0.703005       -19.1297
  18   1.0000      -0.700539       -19.0626
  19   1.0000      -0.650382       -17.6978
  20   1.0000      -0.332266        -9.0414
  21   1.0000      -0.332266        -9.0414
  22   1.0000      -0.320979        -8.7343
  23   0.0000      -0.032815        -0.8930
  24   0.0000       0.033216         0.9039
  25   0.0000       0.033216         0.9039
  26   0.0000       0.064122         1.7448
  27   0.0000       0.083245         2.2652

                 SPIN DOWN ORBITALS
  NO   OCC          E(Eh)            E(eV)
   0   1.0000    -261.396708     -7112.9660
   1   1.0000     -91.906669     -2500.9076
   2   1.0000     -31.900187      -868.0482
   3   1.0000     -27.382148      -745.1061
   4   1.0000     -27.380025      -745.0484
   5   1.0000     -27.380025      -745.0484
   6   1.0000      -8.911376      -242.4909
   7   1.0000      -6.604181      -179.7089
   8   1.0000      -6.588890      -179.2928
   9   1.0000      -6.588890      -179.2928
  10   1.0000      -4.022605      -109.4606
  11   1.0000      -2.581653       -70.2504
  12   1.0000      -2.581653       -70.2504
  13   1.0000      -2.535292       -68.9888
  14   1.0000      -0.895774       -24.3752
  15   1.0000      -0.510970       -13.9042
  16   1.0000      -0.452204       -12.3051
  17   1.0000      -0.357295        -9.7225
  18   1.0000      -0.357295        -9.7225
  19   0.0000      -0.009556        -0.2600
  20   0.0000       0.047355         1.2886
  21   0.0000       0.047355         1.2886
  22   0.0000       0.060898         1.6571
  23   0.0000       0.112837         3.0705

E(0)                                       ...  -1659.993069634
E(0)                                       ...  -1659.993069634
E(CORR)                                    ...     -0.749976320
E(TOT)                                     ...  -1660.743045953
E(CCSD(T))                                 ...  -1660.780784853

MULLIKEN ATOMIC CHARGES AND SPIN DENSITIES
------------------------------------------
   0 Fe:    0.379843    3.836716
   1 S :   -0.379843    0.163284
Sum of atomic charges       :   -0.0000000

LOEWDIN ATOMIC CHARGES AND SPIN DENSITIES
-----------------------------------------
   0 Fe:   -0.355011    3.765675
   1 S :    0.355011    0.234325

  Mayer bond orders larger than 0.100000
B(  0-Fe,  1-S ) :   2.1638

FINAL SINGLE POINT ENERGY     -1660.816252855542

DIPOLE MOMENT
-------------
                                X             Y             Z
Electronic contribution:     -0.00000       0.00000      -4.70366
Nuclear contribution   :      0.00000       0.00000       2.59672
                        -----------------------------------------
Total Dipole Moment    :     -0.00000       0.00000      -2.10694
                        -----------------------------------------
Magnitude (a.u.)       :      2.10694
Magnitude (Debye)      :      5.35541

Rotational constants in cm-1:     0.000000     0.204456     0.204456
Rotational constants in MHz :     0.000000  6129.444038  6129.444038

                             ****ORCA TERMINATED NORMALLY****
TOTAL RUN TIME: 0 days 0 hours 3 minutes 48 seconds 477 msec
