                         Program Version 4.2.0 -  RELEASE  -
|  1> #
|  2> # 37_CoH ccsd(t)/cbs
|  3> #
|  4> ! ccsd(t) extrapolate(3/4,def2) verytightscf
|  5>
|  6> *xyz 0 3
|  7>   Co  0.00000000000000      0.00000000000000      0.23964953556340
|  8>   H   0.00000000000000      0.00000000000000      1.76035046443660
|  9> *
| 10>
| 11> %maxcore 5000
| 12> %pal
| 13> nprocs 24
| 14> end
| 15>
| 16>
| 17>                          ****END OF INPUT****
 Total Charge           Charge          ....    0
 Multiplicity           Mult            ....    3
 Number of Electrons    NEL             ....   28
E(0)                                       ...  -1381.880590801
E(0)                                       ...  -1381.880590801
E(CORR)                                    ...     -0.651506398
E(TOT)                                     ...  -1382.532097199
E(CCSD(T))                                 ...  -1382.552628584

CARTESIAN COORDINATES (ANGSTROEM)
---------------------------------
  Co     0.000000    0.000000    0.239650
  H      0.000000    0.000000    1.760350

 Multiplicity           Mult            ....    3
 Number of Electrons    NEL             ....   28
 Basis Dimension        Dim             ....  130

ORBITAL ENERGIES
----------------
                 SPIN UP ORBITALS
  NO   OCC          E(Eh)            E(eV)
   0   1.0000    -282.861719     -7697.0587
   1   1.0000     -34.674196      -943.5328
   2   1.0000     -29.929770      -814.4304
   3   1.0000     -29.929770      -814.4304
   4   1.0000     -29.928029      -814.3831
   5   1.0000      -4.396625      -119.6383
   6   1.0000      -2.912666       -79.2577
   7   1.0000      -2.910747       -79.2054
   8   1.0000      -2.910747       -79.2054
   9   1.0000      -0.503334       -13.6964
  10   1.0000      -0.500176       -13.6105
  11   1.0000      -0.452628       -12.3166
  12   1.0000      -0.452628       -12.3166
  13   1.0000      -0.450913       -12.2700
  14   1.0000      -0.306736        -8.3467
  15   0.0000       0.010531         0.2866
  16   0.0000       0.044763         1.2181
  17   0.0000       0.044763         1.2181
  18   0.0000       0.096642         2.6297
  19   0.0000       0.127283         3.4635

                 SPIN DOWN ORBITALS
  NO   OCC          E(Eh)            E(eV)
   0   1.0000    -282.860341     -7697.0212
   1   1.0000     -34.611732      -941.8331
   2   1.0000     -29.869324      -812.7856
   3   1.0000     -29.867690      -812.7412
   4   1.0000     -29.867690      -812.7412
   5   1.0000      -4.221074      -114.8613
   6   1.0000      -2.701928       -73.5232
   7   1.0000      -2.700981       -73.4974
   8   1.0000      -2.700981       -73.4974
   9   1.0000      -0.386543       -10.5184
  10   1.0000      -0.381250       -10.3744
  11   1.0000      -0.381250       -10.3744
  12   1.0000      -0.381249       -10.3743
  13   0.0000       0.010025         0.2728
  14   0.0000       0.051347         1.3972
  15   0.0000       0.051347         1.3972
  16   0.0000       0.086631         2.3573
  17   0.0000       0.134430         3.6580

E(0)                                       ...  -1381.909644252
E(0)                                       ...  -1381.909644252
E(CORR)                                    ...     -0.676900506
E(TOT)                                     ...  -1382.586544758
E(CCSD(T))                                 ...  -1382.611675881

MULLIKEN ATOMIC CHARGES AND SPIN DENSITIES
------------------------------------------
   0 Co:    0.186296    2.100437
   1 H :   -0.186296   -0.100437
Sum of atomic charges       :    0.0000000

LOEWDIN ATOMIC CHARGES AND SPIN DENSITIES
-----------------------------------------
   0 Co:    0.207548    2.026185
   1 H :   -0.207548   -0.026185

  Mayer bond orders larger than 0.100000
B(  0-Co,  1-H ) :   0.9349

FINAL SINGLE POINT ENERGY     -1382.637895312050

DIPOLE MOMENT
-------------
                                X             Y             Z
Electronic contribution:     -0.00000      -0.00000      -2.70249
Nuclear contribution   :      0.00000       0.00000       1.52052
                        -----------------------------------------
Total Dipole Moment    :     -0.00000      -0.00000      -1.18197
                        -----------------------------------------
Magnitude (a.u.)       :      1.18197
Magnitude (Debye)      :      3.00434

Rotational constants in cm-1:     0.000000     7.355540     7.355540
Rotational constants in MHz :     0.000000 220513.537195 220513.537195

                             ****ORCA TERMINATED NORMALLY****
TOTAL RUN TIME: 0 days 0 hours 1 minutes 30 seconds 208 msec
