                         Program Version 4.2.0 -  RELEASE  -
|  1> #
|  2> # 38_CoF ccsd(t)/cbs
|  3> #
|  4> ! ccsd(t) extrapolate(3/4,def2) verytightscf veryslowconv nrscf kdiis
|  5>
|  6> *xyz 0 3
|  7>   Co  0.00000000000000      0.00000000000000      0.12338928235446
|  8>   F   0.00000000000000      0.00000000000000      1.87661071764554
|  9> *
| 10>
| 11> %maxcore 5000
| 12>
| 13> %scf
| 14> nrmaxit 1000
| 15> maxiter 1500
| 16> diismaxeq 40
| 17> directresetfreq 1
| 18> end
| 19>
| 20> %pal
| 21> nprocs 24
| 22> end
| 23>
| 24> %method
| 25> Z_maxiter 300
| 26> end
| 27>
| 28>
| 29>                          ****END OF INPUT****
 Total Charge           Charge          ....    0
 Multiplicity           Mult            ....    3
 Number of Electrons    NEL             ....   36
E(0)                                       ...  -1480.892600878
E(0)                                       ...  -1480.892600878
E(CORR)                                    ...     -0.829151425
E(TOT)                                     ...  -1481.721752303
E(CCSD(T))                                 ...  -1481.741448916

CARTESIAN COORDINATES (ANGSTROEM)
---------------------------------
  Co     0.000000    0.000000    0.123389
  F      0.000000    0.000000    1.876611

 Multiplicity           Mult            ....    3
 Number of Electrons    NEL             ....   36
 Basis Dimension        Dim             ....  157

ORBITAL ENERGIES
----------------
                 SPIN UP ORBITALS
  NO   OCC          E(Eh)            E(eV)
   0   1.0000    -283.081873     -7703.0494
   1   1.0000     -34.933056      -950.5768
   2   1.0000     -30.200436      -821.7956
   3   1.0000     -30.196006      -821.6751
   4   1.0000     -30.163598      -820.7932
   5   1.0000     -26.195373      -712.8123
   6   1.0000      -4.679589      -127.3381
   7   1.0000      -3.224396       -87.7403
   8   1.0000      -3.222071       -87.6770
   9   1.0000      -3.145954       -85.6058
  10   1.0000      -1.475523       -40.1510
  11   1.0000      -0.788849       -21.4657
  12   1.0000      -0.788646       -21.4602
  13   1.0000      -0.745770       -20.2934
  14   1.0000      -0.711528       -19.3617
  15   1.0000      -0.701783       -19.0965
  16   1.0000      -0.559103       -15.2140
  17   1.0000      -0.557838       -15.1795
  18   1.0000      -0.550047       -14.9675
  19   0.0000      -0.006800        -0.1850
  20   0.0000       0.048154         1.3103
  21   0.0000       0.049895         1.3577
  22   0.0000       0.072969         1.9856
  23   0.0000       0.119449         3.2504

                 SPIN DOWN ORBITALS
  NO   OCC          E(Eh)            E(eV)
   0   1.0000    -283.082147     -7703.0568
   1   1.0000     -34.831989      -947.8266
   2   1.0000     -30.086725      -818.7014
   3   1.0000     -30.085820      -818.6768
   4   1.0000     -30.083154      -818.6042
   5   1.0000     -26.194091      -712.7775
   6   1.0000      -4.405919      -119.8912
   7   1.0000      -2.902434       -78.9792
   8   1.0000      -2.843997       -77.3891
   9   1.0000      -2.840759       -77.3010
  10   1.0000      -1.470791       -40.0223
  11   1.0000      -0.621090       -16.9007
  12   1.0000      -0.603991       -16.4354
  13   1.0000      -0.591258       -16.0890
  14   1.0000      -0.557908       -15.1814
  15   1.0000      -0.522177       -14.2092
  16   1.0000      -0.288233        -7.8432
  17   0.0000       0.022798         0.6204
  18   0.0000       0.029557         0.8043
  19   0.0000       0.054735         1.4894
  20   0.0000       0.089814         2.4440
  21   0.0000       0.129393         3.5210

E(0)                                       ...  -1480.928366173
E(0)                                       ...  -1480.928366173
E(CORR)                                    ...     -0.875681939
E(TOT)                                     ...  -1481.804048113
E(CCSD(T))                                 ...  -1481.829674654

MULLIKEN ATOMIC CHARGES AND SPIN DENSITIES
------------------------------------------
   0 Co:    0.563847    1.913636
   1 F :   -0.563847    0.086364
Sum of atomic charges       :    0.0000000

LOEWDIN ATOMIC CHARGES AND SPIN DENSITIES
-----------------------------------------
   0 Co:    0.057640    1.917567
   1 F :   -0.057640    0.082433

  Mayer bond orders larger than 0.100000
B(  0-Co,  1-F ) :   0.8024

FINAL SINGLE POINT ENERGY     -1481.873460477757

DIPOLE MOMENT
-------------
                                X             Y             Z
Electronic contribution:      0.00000      -0.00000      -3.39501
Nuclear contribution   :      0.00000       0.00000       0.74078
                        -----------------------------------------
Total Dipole Moment    :      0.00000      -0.00000      -2.65423
                        -----------------------------------------
Magnitude (a.u.)       :      2.65423
Magnitude (Debye)      :      6.74652

Rotational constants in cm-1:     0.000000     0.381744     0.381744
Rotational constants in MHz :     0.000000 11444.406260 11444.406260

                             ****ORCA TERMINATED NORMALLY****
TOTAL RUN TIME: 0 days 0 hours 6 minutes 0 seconds 299 msec
