                         Program Version 4.2.0 -  RELEASE  -
|  1> #
|  2> # 39_CoCl ccsd(t)/cbs
|  3> #
|  4> ! ccsd(t) extrapolate(3/4,def2) verytightscf
|  5>
|  6> *xyz 0 3
|  7>   Co  0.00000000000000      0.00000000000000     -0.04491550120186
|  8>   Cl  0.00000000000000      0.00000000000000      2.04491550120186
|  9> *
| 10>
| 11> %maxcore 5000
| 12> %pal
| 13> nprocs 24
| 14> end
| 15>
| 16>
| 17>                          ****END OF INPUT****
 Total Charge           Charge          ....    0
 Multiplicity           Mult            ....    3
 Number of Electrons    NEL             ....   44
E(0)                                       ...  -1840.907006167
E(0)                                       ...  -1840.907006167
E(CORR)                                    ...     -0.827079753
E(TOT)                                     ...  -1841.734085920
E(CCSD(T))                                 ...  -1841.761792813

CARTESIAN COORDINATES (ANGSTROEM)
---------------------------------
  Co     0.000000    0.000000   -0.044916
  Cl     0.000000    0.000000    2.044916

 Multiplicity           Mult            ....    3
 Number of Electrons    NEL             ....   44
 Basis Dimension        Dim             ....  170

ORBITAL ENERGIES
----------------
                 SPIN UP ORBITALS
  NO   OCC          E(Eh)            E(eV)
   0   1.0000    -282.905606     -7698.2529
   1   1.0000    -104.750272     -2850.3998
   2   1.0000     -34.720443      -944.7913
   3   1.0000     -29.979780      -815.7913
   4   1.0000     -29.974693      -815.6529
   5   1.0000     -29.974442      -815.6460
   6   1.0000     -10.476495      -285.0799
   7   1.0000      -7.943022      -216.1406
   8   1.0000      -7.942963      -216.1390
   9   1.0000      -7.942392      -216.1235
  10   1.0000      -4.449203      -121.0690
  11   1.0000      -2.970787       -80.8392
  12   1.0000      -2.970659       -80.8358
  13   1.0000      -2.960769       -80.5666
  14   1.0000      -0.999410       -27.1953
  15   1.0000      -0.567398       -15.4397
  16   1.0000      -0.555527       -15.1167
  17   1.0000      -0.523880       -14.2555
  18   1.0000      -0.517216       -14.0742
  19   1.0000      -0.503378       -13.6976
  20   1.0000      -0.397108       -10.8059
  21   1.0000      -0.390938       -10.6380
  22   1.0000      -0.384637       -10.4665
  23   0.0000      -0.014405        -0.3920
  24   0.0000       0.047667         1.2971
  25   0.0000       0.049116         1.3365
  26   0.0000       0.075019         2.0414
  27   0.0000       0.116845         3.1795

                 SPIN DOWN ORBITALS
  NO   OCC          E(Eh)            E(eV)
   0   1.0000    -282.904678     -7698.2276
   1   1.0000    -104.750175     -2850.3972
   2   1.0000     -34.652854      -942.9521
   3   1.0000     -29.910975      -813.9190
   4   1.0000     -29.909718      -813.8848
   5   1.0000     -29.907285      -813.8186
   6   1.0000     -10.476403      -285.0774
   7   1.0000      -7.943460      -216.1525
   8   1.0000      -7.942475      -216.1257
   9   1.0000      -7.942000      -216.1128
  10   1.0000      -4.261498      -115.9613
  11   1.0000      -2.744951       -74.6939
  12   1.0000      -2.743763       -74.6616
  13   1.0000      -2.732362       -74.3513
  14   1.0000      -0.997556       -27.1449
  15   1.0000      -0.461721       -12.5641
  16   1.0000      -0.458561       -12.4781
  17   1.0000      -0.428940       -11.6720
  18   1.0000      -0.399737       -10.8774
  19   1.0000      -0.368741       -10.0340
  20   1.0000      -0.359625        -9.7859
  21   0.0000      -0.007868        -0.2141
  22   0.0000       0.046271         1.2591
  23   0.0000       0.048550         1.3211
  24   0.0000       0.076546         2.0829
  25   0.0000       0.121753         3.3131

E(0)                                       ...  -1840.949329045
E(0)                                       ...  -1840.949329045
E(CORR)                                    ...     -0.870689784
E(TOT)                                     ...  -1841.820018829
E(CCSD(T))                                 ...  -1841.854264716

MULLIKEN ATOMIC CHARGES AND SPIN DENSITIES
------------------------------------------
   0 Co:    0.487775    1.975758
   1 Cl:   -0.487775    0.024242
Sum of atomic charges       :   -0.0000000

LOEWDIN ATOMIC CHARGES AND SPIN DENSITIES
-----------------------------------------
   0 Co:   -0.285708    1.963118
   1 Cl:    0.285708    0.036882

  Mayer bond orders larger than 0.100000
B(  0-Co,  1-Cl) :   0.9452

FINAL SINGLE POINT ENERGY     -1841.897241610915

DIPOLE MOMENT
-------------
                                X             Y             Z
Electronic contribution:     -0.00000       0.00000      -3.88047
Nuclear contribution   :      0.00000       0.00000       1.86529
                        -----------------------------------------
Total Dipole Moment    :     -0.00000       0.00000      -2.01518
                        -----------------------------------------
Magnitude (a.u.)       :      2.01518
Magnitude (Debye)      :      5.12218

Rotational constants in cm-1:     0.000000     0.174373     0.174373
Rotational constants in MHz :     0.000000  5227.567081  5227.567081

                             ****ORCA TERMINATED NORMALLY****
TOTAL RUN TIME: 0 days 0 hours 6 minutes 2 seconds 128 msec
