                         Program Version 4.2.0 -  RELEASE  -
|  1> #
|  2> # 40_CoBr ccsd(t)/cbs
|  3> #
|  4> ! ccsd(t) extrapolate(3/4,def2) verytightscf
|  5>
|  6> *xyz 0 3
|  7>   Co  0.00000000000000      0.00000000000000     -0.10327875603907
|  8>   Br  0.00000000000000      0.00000000000000      2.10327875603907
|  9> *
| 10>
| 11> %maxcore 5000
| 12> %pal
| 13> nprocs 24
| 14> end
| 15>
| 16>
| 17>                          ****END OF INPUT****
 Total Charge           Charge          ....    0
 Multiplicity           Mult            ....    3
 Number of Electrons    NEL             ....   62
E(0)                                       ...  -3953.806162849
E(0)                                       ...  -3953.806162849
E(CORR)                                    ...     -0.903471927
E(TOT)                                     ...  -3954.709634776
E(CCSD(T))                                 ...  -3954.739817919

CARTESIAN COORDINATES (ANGSTROEM)
---------------------------------
  Co     0.000000    0.000000   -0.103279
  Br     0.000000    0.000000    2.103279

 Multiplicity           Mult            ....    3
 Number of Electrons    NEL             ....   62
 Basis Dimension        Dim             ....  189

ORBITAL ENERGIES
----------------
                 SPIN UP ORBITALS
  NO   OCC          E(Eh)            E(eV)
   0   1.0000    -489.953218    -13332.3049
   1   1.0000    -282.904265     -7698.2164
   2   1.0000     -65.094125     -1771.3012
   3   1.0000     -58.448801     -1590.4727
   4   1.0000     -58.448749     -1590.4713
   5   1.0000     -58.448749     -1590.4713
   6   1.0000     -34.717726      -944.7173
   7   1.0000     -29.994034      -816.1792
   8   1.0000     -29.963583      -815.3506
   9   1.0000     -29.963583      -815.3506
  10   1.0000      -9.767027      -265.7743
  11   1.0000      -7.375590      -200.7000
  12   1.0000      -7.374027      -200.6575
  13   1.0000      -7.374027      -200.6575
  14   1.0000      -4.446479      -120.9948
  15   1.0000      -3.117699       -84.8369
  16   1.0000      -3.116632       -84.8079
  17   1.0000      -3.116632       -84.8079
  18   1.0000      -3.114676       -84.7546
  19   1.0000      -3.114676       -84.7546
  20   1.0000      -3.015400       -82.0532
  21   1.0000      -2.938727       -79.9668
  22   1.0000      -2.938727       -79.9668
  23   1.0000      -0.937937       -25.5226
  24   1.0000      -0.569828       -15.5058
  25   1.0000      -0.569828       -15.5058
  26   1.0000      -0.531593       -14.4654
  27   1.0000      -0.482743       -13.1361
  28   1.0000      -0.482743       -13.1361
  29   1.0000      -0.384574       -10.4648
  30   1.0000      -0.365534        -9.9467
  31   1.0000      -0.365534        -9.9467
  32   0.0000      -0.016739        -0.4555
  33   0.0000       0.048757         1.3267
  34   0.0000       0.048757         1.3267
  35   0.0000       0.076525         2.0824
  36   0.0000       0.114703         3.1212

                 SPIN DOWN ORBITALS
  NO   OCC          E(Eh)            E(eV)
   0   1.0000    -489.953109    -13332.3019
   1   1.0000    -282.903318     -7698.1907
   2   1.0000     -65.094057     -1771.2993
   3   1.0000     -58.448874     -1590.4747
   4   1.0000     -58.448517     -1590.4650
   5   1.0000     -58.448517     -1590.4650
   6   1.0000     -34.650805      -942.8963
   7   1.0000     -29.908671      -813.8563
   8   1.0000     -29.908671      -813.8563
   9   1.0000     -29.905047      -813.7577
  10   1.0000      -9.766821      -265.7687
  11   1.0000      -7.375833      -200.7066
  12   1.0000      -7.373484      -200.6427
  13   1.0000      -7.373484      -200.6427
  14   1.0000      -4.259899      -115.9177
  15   1.0000      -3.117650       -84.8356
  16   1.0000      -3.116526       -84.8050
  17   1.0000      -3.116526       -84.8050
  18   1.0000      -3.114382       -84.7466
  19   1.0000      -3.114382       -84.7466
  20   1.0000      -2.754172       -74.9448
  21   1.0000      -2.754172       -74.9448
  22   1.0000      -2.709071       -73.7176
  23   1.0000      -0.934894       -25.4398
  24   1.0000      -0.477380       -12.9902
  25   1.0000      -0.390729       -10.6323
  26   1.0000      -0.390729       -10.6323
  27   1.0000      -0.372398       -10.1335
  28   1.0000      -0.372398       -10.1335
  29   1.0000      -0.368754       -10.0343
  30   0.0000      -0.010231        -0.2784
  31   0.0000       0.047229         1.2852
  32   0.0000       0.047229         1.2852
  33   0.0000       0.078514         2.1365
  34   0.0000       0.120855         3.2886

E(0)                                       ...  -3953.884993428
E(0)                                       ...  -3953.884993428
E(CORR)                                    ...     -1.223964415
E(TOT)                                     ...  -3955.108957842
E(CCSD(T))                                 ...  -3955.147944861

MULLIKEN ATOMIC CHARGES AND SPIN DENSITIES
------------------------------------------
   0 Co:    0.458720    1.952994
   1 Br:   -0.458720    0.047006
Sum of atomic charges       :   -0.0000000

LOEWDIN ATOMIC CHARGES AND SPIN DENSITIES
-----------------------------------------
   0 Co:   -0.414831    1.927085
   1 Br:    0.414831    0.072915

  Mayer bond orders larger than 0.100000
B(  0-Co,  1-Br) :   0.9860

FINAL SINGLE POINT ENERGY     -3955.402725933453

DIPOLE MOMENT
-------------
                                X             Y             Z
Electronic contribution:      0.00000       0.00000       0.74411
Nuclear contribution   :      0.00000       0.00000      -2.84584
                        -----------------------------------------
Total Dipole Moment    :      0.00000       0.00000      -2.10172
                        -----------------------------------------
Magnitude (a.u.)       :      2.10172
Magnitude (Debye)      :      5.34215

Rotational constants in cm-1:     0.000000     0.102086     0.102086
Rotational constants in MHz :     0.000000  3060.463500  3060.463500

                             ****ORCA TERMINATED NORMALLY****
TOTAL RUN TIME: 0 days 0 hours 10 minutes 17 seconds 332 msec
