                         Program Version 4.2.0 -  RELEASE  -
|  1> #
|  2> # 41_CoO ccsd(t)/cbs
|  3> #
|  4> ! ccsd(t) extrapolate(3/4,def2) verytightscf veryslowconv
|  5>
|  6> *xyz 0 4
|  7>   Co  0.00000000000000      0.00000000000000      0.18722579130779
|  8>   O   0.00000000000000      0.00000000000000      1.81277420869221
|  9> *
| 10>
| 11> %maxcore 5000
| 12>
| 13> %scf
| 14> MaxIter 1500
| 15> DIISMaxEq 40
| 16> directresetfreq 1
| 17> Shift Shift 0.1 ErrOff 0.1 end
| 18> end
| 19>
| 20> %pal
| 21> nprocs 24
| 22> end
| 23>
| 24>
| 25>                          ****END OF INPUT****
 Total Charge           Charge          ....    0
 Multiplicity           Mult            ....    4
 Number of Electrons    NEL             ....   35
E(0)                                       ...  -1456.179508189
E(0)                                       ...  -1456.179508189
E(CORR)                                    ...     -0.837222170
E(TOT)                                     ...  -1457.016730359
E(CCSD(T))                                 ...  -1457.066762813

CARTESIAN COORDINATES (ANGSTROEM)
---------------------------------
  Co     0.000000    0.000000    0.187226
  O      0.000000    0.000000    1.812774

 Multiplicity           Mult            ....    4
 Number of Electrons    NEL             ....   35
 Basis Dimension        Dim             ....  157

ORBITAL ENERGIES
----------------
                 SPIN UP ORBITALS
  NO   OCC          E(Eh)            E(eV)
   0   1.0000    -283.076829     -7702.9121
   1   1.0000     -34.929729      -950.4862
   2   1.0000     -30.228515      -822.5597
   3   1.0000     -30.157357      -820.6234
   4   1.0000     -30.157357      -820.6234
   5   1.0000     -20.538006      -558.8675
   6   1.0000      -4.674763      -127.2068
   7   1.0000      -3.288702       -89.4901
   8   1.0000      -3.133355       -85.2629
   9   1.0000      -3.133355       -85.2629
  10   1.0000      -1.173055       -31.9204
  11   1.0000      -0.782483       -21.2924
  12   1.0000      -0.782483       -21.2924
  13   1.0000      -0.753740       -20.5103
  14   1.0000      -0.656393       -17.8614
  15   1.0000      -0.656393       -17.8614
  16   1.0000      -0.465303       -12.6615
  17   1.0000      -0.465303       -12.6615
  18   1.0000      -0.306993        -8.3537
  19   0.0000       0.039291         1.0692
  20   0.0000       0.039291         1.0692
  21   0.0000       0.051683         1.4064
  22   0.0000       0.069539         1.8923
  23   0.0000       0.099683         2.7125

                 SPIN DOWN ORBITALS
  NO   OCC          E(Eh)            E(eV)
   0   1.0000    -283.073347     -7702.8174
   1   1.0000     -34.825742      -947.6566
   2   1.0000     -30.080527      -818.5328
   3   1.0000     -30.080527      -818.5328
   4   1.0000     -30.080267      -818.5257
   5   1.0000     -20.566828      -559.6519
   6   1.0000      -4.392979      -119.5390
   7   1.0000      -2.889205       -78.6193
   8   1.0000      -2.889205       -78.6193
   9   1.0000      -2.784307       -75.7648
  10   1.0000      -1.293427       -35.1959
  11   1.0000      -0.650272       -17.6948
  12   1.0000      -0.523588       -14.2476
  13   1.0000      -0.523588       -14.2476
  14   1.0000      -0.513670       -13.9777
  15   1.0000      -0.513670       -13.9777
  16   0.0000       0.006243         0.1699
  17   0.0000       0.054873         1.4932
  18   0.0000       0.054873         1.4932
  19   0.0000       0.069077         1.8797
  20   0.0000       0.126361         3.4385

E(0)                                       ...  -1456.213727962
E(0)                                       ...  -1456.213727962
E(CORR)                                    ...     -0.879013864
E(TOT)                                     ...  -1457.092741826
E(CCSD(T))                                 ...  -1457.148307759

MULLIKEN ATOMIC CHARGES AND SPIN DENSITIES
------------------------------------------
   0 Co:    0.640246    2.466809
   1 O :   -0.640246    0.533191
Sum of atomic charges       :   -0.0000000

LOEWDIN ATOMIC CHARGES AND SPIN DENSITIES
-----------------------------------------
   0 Co:    0.078674    2.433842
   1 O :   -0.078674    0.566158

  Mayer bond orders larger than 0.100000
B(  0-Co,  1-O ) :   2.6353

FINAL SINGLE POINT ENERGY     -1457.188076803399

DIPOLE MOMENT
-------------
                                X             Y             Z
Electronic contribution:     -0.00000      -0.00000      -4.43871
Nuclear contribution   :      0.00000       0.00000       1.61802
                        -----------------------------------------
Total Dipole Moment    :     -0.00000      -0.00000      -2.82069
                        -----------------------------------------
Magnitude (a.u.)       :      2.82069
Magnitude (Debye)      :      7.16963

Rotational constants in cm-1:     0.000000     0.507011     0.507011
Rotational constants in MHz :     0.000000 15199.819890 15199.819890

                             ****ORCA TERMINATED NORMALLY****
TOTAL RUN TIME: 0 days 0 hours 4 minutes 43 seconds 997 msec
