                         Program Version 4.2.0 -  RELEASE  -
|  1> #
|  2> # 42_CoS ccsd(t)/cbs
|  3> #
|  4> ! ccsd(t) extrapolate(3/4,def2) verytightscf
|  5>
|  6> *xyz 0 4
|  7>   Co  0.00000000000000      0.00000000000000      0.00920129654260
|  8>   S   0.00000000000000      0.00000000000000      1.99079870345740
|  9> *
| 10>
| 11> %maxcore 5000
| 12> %pal
| 13> nprocs 24
| 14> end
| 15>
| 16>
| 17>                          ****END OF INPUT****
 Total Charge           Charge          ....    0
 Multiplicity           Mult            ....    4
 Number of Electrons    NEL             ....   43
E(0)                                       ...  -1778.856812681
E(0)                                       ...  -1778.856812681
E(CORR)                                    ...     -0.808137955
E(TOT)                                     ...  -1779.664950636
E(CCSD(T))                                 ...  -1779.709765502

CARTESIAN COORDINATES (ANGSTROEM)
---------------------------------
  Co     0.000000    0.000000    0.009201
  S      0.000000    0.000000    1.990799

 Multiplicity           Mult            ....    4
 Number of Electrons    NEL             ....   43
 Basis Dimension        Dim             ....  170

ORBITAL ENERGIES
----------------
                 SPIN UP ORBITALS
  NO   OCC          E(Eh)            E(eV)
   0   1.0000    -283.097664     -7703.4791
   1   1.0000     -91.895260     -2500.5972
   2   1.0000     -34.948937      -951.0089
   3   1.0000     -30.247071      -823.0646
   4   1.0000     -30.176665      -821.1488
   5   1.0000     -30.176665      -821.1488
   6   1.0000      -8.899994      -242.1812
   7   1.0000      -6.580460      -179.0634
   8   1.0000      -6.580460      -179.0634
   9   1.0000      -6.571686      -178.8247
  10   1.0000      -4.691811      -127.6707
  11   1.0000      -3.304625       -89.9234
  12   1.0000      -3.149327       -85.6976
  13   1.0000      -3.149327       -85.6976
  14   1.0000      -0.867507       -23.6061
  15   1.0000      -0.790012       -21.4973
  16   1.0000      -0.790012       -21.4973
  17   1.0000      -0.753666       -20.5083
  18   1.0000      -0.672432       -18.2978
  19   1.0000      -0.672432       -18.2978
  20   1.0000      -0.330676        -8.9982
  21   1.0000      -0.330676        -8.9982
  22   1.0000      -0.328696        -8.9443
  23   0.0000      -0.044338        -1.2065
  24   0.0000       0.037943         1.0325
  25   0.0000       0.037943         1.0325
  26   0.0000       0.068658         1.8683
  27   0.0000       0.089362         2.4317

                 SPIN DOWN ORBITALS
  NO   OCC          E(Eh)            E(eV)
   0   1.0000    -283.094428     -7703.3910
   1   1.0000     -91.899888     -2500.7231
   2   1.0000     -34.846750      -948.2283
   3   1.0000     -30.101648      -819.1075
   4   1.0000     -30.100979      -819.0893
   5   1.0000     -30.100979      -819.0893
   6   1.0000      -8.904389      -242.3007
   7   1.0000      -6.595436      -179.4709
   8   1.0000      -6.581919      -179.1031
   9   1.0000      -6.581919      -179.1031
  10   1.0000      -4.413766      -120.1047
  11   1.0000      -2.908971       -79.1571
  12   1.0000      -2.908971       -79.1571
  13   1.0000      -2.802696       -76.2652
  14   1.0000      -0.887462       -24.1491
  15   1.0000      -0.541334       -14.7304
  16   1.0000      -0.541334       -14.7304
  17   1.0000      -0.446712       -12.1557
  18   1.0000      -0.350059        -9.5256
  19   1.0000      -0.350059        -9.5256
  20   0.0000      -0.018430        -0.5015
  21   0.0000       0.048349         1.3156
  22   0.0000       0.048349         1.3156
  23   0.0000       0.061693         1.6788
  24   0.0000       0.109811         2.9881

E(0)                                       ...  -1778.898999216
E(0)                                       ...  -1778.898999216
E(CORR)                                    ...     -0.846746897
E(TOT)                                     ...  -1779.745746112
E(CCSD(T))                                 ...  -1779.796364579

MULLIKEN ATOMIC CHARGES AND SPIN DENSITIES
------------------------------------------
   0 Co:    0.203841    2.271159
   1 S :   -0.203841    0.728841
Sum of atomic charges       :   -0.0000000

LOEWDIN ATOMIC CHARGES AND SPIN DENSITIES
-----------------------------------------
   0 Co:   -0.524149    2.304115
   1 S :    0.524149    0.695885

  Mayer bond orders larger than 0.100000
B(  0-Co,  1-S ) :   2.2663

FINAL SINGLE POINT ENERGY     -1779.835073452558

DIPOLE MOMENT
-------------
                                X             Y             Z
Electronic contribution:     -0.00000       0.00000      -4.56879
Nuclear contribution   :      0.00000       0.00000       3.17962
                        -----------------------------------------
Total Dipole Moment    :     -0.00000       0.00000      -1.38917
                        -----------------------------------------
Magnitude (a.u.)       :      1.38917
Magnitude (Debye)      :      3.53098

Rotational constants in cm-1:     0.000000     0.206757     0.206757
Rotational constants in MHz :     0.000000  6198.412278  6198.412278

                             ****ORCA TERMINATED NORMALLY****
TOTAL RUN TIME: 0 days 0 hours 4 minutes 17 seconds 734 msec
