                         Program Version 4.2.0 -  RELEASE  -
|  1> #
|  2> # 43_NiH ccsd(t)/cbs
|  3> #
|  4> ! ccsd(t) extrapolate(3/4,def2) verytightscf
|  5>
|  6> *xyz 0 2
|  7>   Ni  0.00000000000000      0.00000000000000      0.25339129346416
|  8>   H   0.00000000000000      0.00000000000000      1.74660870653584
|  9> *
| 10>
| 11> %maxcore 5000
| 12> %pal
| 13> nprocs 24
| 14> end
| 15>
| 16>
| 17>                          ****END OF INPUT****
 Total Charge           Charge          ....    0
 Multiplicity           Mult            ....    2
 Number of Electrons    NEL             ....   29
E(0)                                       ...  -1507.343214080
E(0)                                       ...  -1507.343214080
E(CORR)                                    ...     -0.721718023
E(TOT)                                     ...  -1508.064932103
E(CCSD(T))                                 ...  -1508.087138425

CARTESIAN COORDINATES (ANGSTROEM)
---------------------------------
  Ni     0.000000    0.000000    0.253391
  H      0.000000    0.000000    1.746609

 Multiplicity           Mult            ....    2
 Number of Electrons    NEL             ....   29
 Basis Dimension        Dim             ....  130

ORBITAL ENERGIES
----------------
                 SPIN UP ORBITALS
  NO   OCC          E(Eh)            E(eV)
   0   1.0000    -305.396988     -8310.2745
   1   1.0000     -37.690829     -1025.6196
   2   1.0000     -32.741520      -890.9421
   3   1.0000     -32.706712      -889.9949
   4   1.0000     -32.706712      -889.9949
   5   1.0000      -4.702184      -127.9529
   6   1.0000      -3.169958       -86.2589
   7   1.0000      -3.089032       -84.0568
   8   1.0000      -3.089032       -84.0568
   9   1.0000      -0.547076       -14.8867
  10   1.0000      -0.481510       -13.1026
  11   1.0000      -0.481510       -13.1026
  12   1.0000      -0.451697       -12.2913
  13   1.0000      -0.451697       -12.2913
  14   1.0000      -0.320119        -8.7109
  15   0.0000       0.009436         0.2568
  16   0.0000       0.048908         1.3308
  17   0.0000       0.048908         1.3308
  18   0.0000       0.097824         2.6619
  19   0.0000       0.133286         3.6269

                 SPIN DOWN ORBITALS
  NO   OCC          E(Eh)            E(eV)
   0   1.0000    -305.396069     -8310.2495
   1   1.0000     -37.656209     -1024.6775
   2   1.0000     -32.684952      -889.4028
   3   1.0000     -32.684952      -889.4028
   4   1.0000     -32.684425      -889.3884
   5   1.0000      -4.609062      -125.4190
   6   1.0000      -3.024721       -82.3068
   7   1.0000      -3.024721       -82.3068
   8   1.0000      -2.967524       -80.7504
   9   1.0000      -0.452913       -12.3244
  10   1.0000      -0.452913       -12.3244
  11   1.0000      -0.401586       -10.9277
  12   1.0000      -0.401586       -10.9277
  13   1.0000      -0.383592       -10.4381
  14   0.0000       0.009216         0.2508
  15   0.0000       0.053210         1.4479
  16   0.0000       0.053210         1.4479
  17   0.0000       0.088682         2.4132
  18   0.0000       0.138392         3.7658

E(0)                                       ...  -1507.375935047
E(0)                                       ...  -1507.375935047
E(CORR)                                    ...     -0.749948474
E(TOT)                                     ...  -1508.125883521
E(CCSD(T))                                 ...  -1508.153573506

MULLIKEN ATOMIC CHARGES AND SPIN DENSITIES
------------------------------------------
   0 Ni:    0.186432    1.047340
   1 H :   -0.186432   -0.047340
Sum of atomic charges       :    0.0000000

LOEWDIN ATOMIC CHARGES AND SPIN DENSITIES
-----------------------------------------
   0 Ni:    0.196696    0.993632
   1 H :   -0.196696    0.006368

  Mayer bond orders larger than 0.100000
B(  0-Ni,  1-H ) :   0.9447

FINAL SINGLE POINT ENERGY     -1508.183053848396

DIPOLE MOMENT
-------------
                                X             Y             Z
Electronic contribution:      0.00000       0.00000      -2.60828
Nuclear contribution   :      0.00000       0.00000       1.44028
                        -----------------------------------------
Total Dipole Moment    :      0.00000       0.00000      -1.16799
                        -----------------------------------------
Magnitude (a.u.)       :      1.16799
Magnitude (Debye)      :      2.96880

Rotational constants in cm-1:     0.000000     7.629300     7.629300
Rotational constants in MHz :     0.000000 228720.664008 228720.664008

                             ****ORCA TERMINATED NORMALLY****
TOTAL RUN TIME: 0 days 0 hours 1 minutes 34 seconds 484 msec
