                         Program Version 4.2.0 -  RELEASE  -
|  1> #
|  2> # 44_NiF ccsd(t)/cbs
|  3> #
|  4> ! ccsd(t) extrapolate(3/4,def2) verytightscf
|  5>
|  6> *xyz 0 2
|  7>   Ni  0.00000000000000      0.00000000000000      0.12374716283349
|  8>   F   0.00000000000000      0.00000000000000      1.87625283716651
|  9> *
| 10>
| 11> %maxcore 5000
| 12> %pal
| 13> nprocs 24
| 14> end
| 15>
| 16>
| 17>                          ****END OF INPUT****
 Total Charge           Charge          ....    0
 Multiplicity           Mult            ....    2
 Number of Electrons    NEL             ....   37
E(0)                                       ...  -1606.301580876
E(0)                                       ...  -1606.301580876
E(CORR)                                    ...     -0.944277906
E(TOT)                                     ...  -1607.245858783
E(CCSD(T))                                 ...  -1607.272716256

CARTESIAN COORDINATES (ANGSTROEM)
---------------------------------
  Ni     0.000000    0.000000    0.123747
  F      0.000000    0.000000    1.876253

 Multiplicity           Mult            ....    2
 Number of Electrons    NEL             ....   37
 Basis Dimension        Dim             ....  157

ORBITAL ENERGIES
----------------
                 SPIN UP ORBITALS
  NO   OCC          E(Eh)            E(eV)
   0   1.0000    -305.407254     -8310.5539
   1   1.0000     -37.699005     -1025.8421
   2   1.0000     -32.749498      -891.1591
   3   1.0000     -32.716627      -890.2647
   4   1.0000     -32.716627      -890.2647
   5   1.0000     -26.127642      -710.9693
   6   1.0000      -4.715468      -128.3144
   7   1.0000      -3.186285       -86.7032
   8   1.0000      -3.105736       -84.5114
   9   1.0000      -3.105736       -84.5114
  10   1.0000      -1.400447       -38.1081
  11   1.0000      -0.597004       -16.2453
  12   1.0000      -0.541360       -14.7312
  13   1.0000      -0.541360       -14.7312
  14   1.0000      -0.469691       -12.7809
  15   1.0000      -0.469691       -12.7809
  16   1.0000      -0.455901       -12.4057
  17   1.0000      -0.450778       -12.2663
  18   1.0000      -0.450778       -12.2663
  19   0.0000      -0.009632        -0.2621
  20   0.0000       0.051498         1.4013
  21   0.0000       0.051498         1.4013
  22   0.0000       0.081667         2.2223
  23   0.0000       0.130562         3.5528

                 SPIN DOWN ORBITALS
  NO   OCC          E(Eh)            E(eV)
   0   1.0000    -305.406444     -8310.5318
   1   1.0000     -37.663381     -1024.8727
   2   1.0000     -32.693800      -889.6435
   3   1.0000     -32.693800      -889.6435
   4   1.0000     -32.690395      -889.5509
   5   1.0000     -26.128086      -710.9814
   6   1.0000      -4.620505      -125.7303
   7   1.0000      -3.039779       -82.7166
   8   1.0000      -3.039779       -82.7166
   9   1.0000      -2.978097       -81.0381
  10   1.0000      -1.401123       -38.1265
  11   1.0000      -0.529326       -14.4037
  12   1.0000      -0.529326       -14.4037
  13   1.0000      -0.526124       -14.3166
  14   1.0000      -0.433641       -11.8000
  15   1.0000      -0.433641       -11.8000
  16   1.0000      -0.418156       -11.3786
  17   1.0000      -0.418156       -11.3786
  18   0.0000      -0.008966        -0.2440
  19   0.0000       0.052356         1.4247
  20   0.0000       0.052356         1.4247
  21   0.0000       0.077761         2.1160
  22   0.0000       0.133698         3.6381

E(0)                                       ...  -1606.340224717
E(0)                                       ...  -1606.340224717
E(CORR)                                    ...     -0.994833734
E(TOT)                                     ...  -1607.335058451
E(CCSD(T))                                 ...  -1607.368988129

MULLIKEN ATOMIC CHARGES AND SPIN DENSITIES
------------------------------------------
   0 Ni:    0.611712    0.992475
   1 F :   -0.611712    0.007525
Sum of atomic charges       :   -0.0000000

LOEWDIN ATOMIC CHARGES AND SPIN DENSITIES
-----------------------------------------
   0 Ni:    0.091725    0.983477
   1 F :   -0.091725    0.016523

  Mayer bond orders larger than 0.100000
B(  0-Ni,  1-F ) :   0.6647

FINAL SINGLE POINT ENERGY     -1607.416998281156

DIPOLE MOMENT
-------------
                                X             Y             Z
Electronic contribution:      0.00000       0.00000      -1.86072
Nuclear contribution   :      0.00000       0.00000      -0.15532
                        -----------------------------------------
Total Dipole Moment    :      0.00000       0.00000      -2.01604
                        -----------------------------------------
Magnitude (a.u.)       :      2.01604
Magnitude (Debye)      :      5.12436

Rotational constants in cm-1:     0.000000     0.382421     0.382421
Rotational constants in MHz :     0.000000 11464.697327 11464.697327

                             ****ORCA TERMINATED NORMALLY****
TOTAL RUN TIME: 0 days 0 hours 3 minutes 32 seconds 434 msec
