                         Program Version 4.2.0 -  RELEASE  -
|  1> #
|  2> # 45_NiCl ccsd(t)/cbs
|  3> #
|  4> ! ccsd(t) extrapolate(3/4,def2) verytightscf
|  5>
|  6> *xyz 0 2
|  7>   Ni  0.00000000000000      0.00000000000000     -0.04672403924217
|  8>   Cl  0.00000000000000      0.00000000000000      2.04672403924217
|  9> *
| 10>
| 11> %maxcore 5000
| 12> %pal
| 13> nprocs 24
| 14> end
| 15>
| 16>
| 17>                          ****END OF INPUT****
 Total Charge           Charge          ....    0
 Multiplicity           Mult            ....    2
 Number of Electrons    NEL             ....   45
E(0)                                       ...  -1966.370412185
E(0)                                       ...  -1966.370412185
E(CORR)                                    ...     -0.891629726
E(TOT)                                     ...  -1967.262041911
E(CCSD(T))                                 ...  -1967.290641534

CARTESIAN COORDINATES (ANGSTROEM)
---------------------------------
  Ni     0.000000    0.000000   -0.046724
  Cl     0.000000    0.000000    2.046724

 Multiplicity           Mult            ....    2
 Number of Electrons    NEL             ....   45
 Basis Dimension        Dim             ....  170

ORBITAL ENERGIES
----------------
                 SPIN UP ORBITALS
  NO   OCC          E(Eh)            E(eV)
   0   1.0000    -305.431950     -8311.2259
   1   1.0000    -104.744510     -2850.2430
   2   1.0000     -37.723941     -1026.5206
   3   1.0000     -32.775329      -891.8621
   4   1.0000     -32.740929      -890.9260
   5   1.0000     -32.740929      -890.9260
   6   1.0000     -10.470884      -284.9272
   7   1.0000      -7.937207      -215.9824
   8   1.0000      -7.936939      -215.9751
   9   1.0000      -7.936939      -215.9751
  10   1.0000      -4.739907      -128.9794
  11   1.0000      -3.211370       -87.3858
  12   1.0000      -3.129368       -85.1544
  13   1.0000      -3.129368       -85.1544
  14   1.0000      -0.993617       -27.0377
  15   1.0000      -0.589592       -16.0436
  16   1.0000      -0.532361       -14.4863
  17   1.0000      -0.532361       -14.4863
  18   1.0000      -0.492135       -13.3917
  19   1.0000      -0.492135       -13.3917
  20   1.0000      -0.409758       -11.1501
  21   1.0000      -0.383455       -10.4343
  22   1.0000      -0.383455       -10.4343
  23   0.0000      -0.014228        -0.3872
  24   0.0000       0.049971         1.3598
  25   0.0000       0.049971         1.3598
  26   0.0000       0.077967         2.1216
  27   0.0000       0.124257         3.3812

                 SPIN DOWN ORBITALS
  NO   OCC          E(Eh)            E(eV)
   0   1.0000    -305.431213     -8311.2058
   1   1.0000    -104.744937     -2850.2547
   2   1.0000     -37.688235     -1025.5490
   3   1.0000     -32.718104      -890.3049
   4   1.0000     -32.718104      -890.3049
   5   1.0000     -32.715953      -890.2463
   6   1.0000     -10.471305      -284.9387
   7   1.0000      -7.938589      -216.0200
   8   1.0000      -7.937356      -215.9865
   9   1.0000      -7.937356      -215.9865
  10   1.0000      -4.644325      -126.3785
  11   1.0000      -3.061896       -83.3184
  12   1.0000      -3.061896       -83.3184
  13   1.0000      -3.003490       -81.7291
  14   1.0000      -0.994889       -27.0723
  15   1.0000      -0.505782       -13.7630
  16   1.0000      -0.505782       -13.7630
  17   1.0000      -0.439812       -11.9679
  18   1.0000      -0.439812       -11.9679
  19   1.0000      -0.438729       -11.9384
  20   1.0000      -0.380993       -10.3673
  21   1.0000      -0.380993       -10.3673
  22   0.0000      -0.012907        -0.3512
  23   0.0000       0.050972         1.3870
  24   0.0000       0.050972         1.3870
  25   0.0000       0.073567         2.0019
  26   0.0000       0.127145         3.4598

E(0)                                       ...  -1966.416425751
E(0)                                       ...  -1966.416425751
E(CORR)                                    ...     -0.937866987
E(TOT)                                     ...  -1967.354292738
E(CCSD(T))                                 ...  -1967.390120260

MULLIKEN ATOMIC CHARGES AND SPIN DENSITIES
------------------------------------------
   0 Ni:    0.526130    0.993727
   1 Cl:   -0.526130    0.006273
Sum of atomic charges       :   -0.0000000

LOEWDIN ATOMIC CHARGES AND SPIN DENSITIES
-----------------------------------------
   0 Ni:   -0.229853    0.985214
   1 Cl:    0.229853    0.014786

  Mayer bond orders larger than 0.100000
B(  0-Ni,  1-Cl) :   0.8568

FINAL SINGLE POINT ENERGY     -1967.436061900895

DIPOLE MOMENT
-------------
                                X             Y             Z
Electronic contribution:      0.00000       0.00000      -2.38355
Nuclear contribution   :      0.00000       0.00000       0.21916
                        -----------------------------------------
Total Dipole Moment    :      0.00000       0.00000      -2.16439
                        -----------------------------------------
Magnitude (a.u.)       :      2.16439
Magnitude (Debye)      :      5.50144

Rotational constants in cm-1:     0.000000     0.174027     0.174027
Rotational constants in MHz :     0.000000  5217.185595  5217.185595

                             ****ORCA TERMINATED NORMALLY****
TOTAL RUN TIME: 0 days 0 hours 3 minutes 58 seconds 87 msec
