                         Program Version 4.2.0 -  RELEASE  -
|  1> #
|  2> # 46_NiBr ccsd(t)/cbs
|  3> #
|  4> ! ccsd(t) extrapolate(3/4,def2) verytightscf
|  5>
|  6> *xyz 0 2
|  7>   Ni  0.00000000000000      0.00000000000000     -0.09144593844003
|  8>   Br  0.00000000000000      0.00000000000000      2.09144593844003
|  9> *
| 10>
| 11> %maxcore 5000
| 12> %pal
| 13> nprocs 24
| 14> end
| 15>
| 16>
| 17>                          ****END OF INPUT****
 Total Charge           Charge          ....    0
 Multiplicity           Mult            ....    2
 Number of Electrons    NEL             ....   63
E(0)                                       ...  -4079.280432444
E(0)                                       ...  -4079.280432444
E(CORR)                                    ...     -0.966933460
E(TOT)                                     ...  -4080.247365904
E(CCSD(T))                                 ...  -4080.277612101

CARTESIAN COORDINATES (ANGSTROEM)
---------------------------------
  Ni     0.000000    0.000000   -0.091446
  Br     0.000000    0.000000    2.091446

 Multiplicity           Mult            ....    2
 Number of Electrons    NEL             ....   63
 Basis Dimension        Dim             ....  189

ORBITAL ENERGIES
----------------
                 SPIN UP ORBITALS
  NO   OCC          E(Eh)            E(eV)
   0   1.0000    -489.954705    -13332.3453
   1   1.0000    -305.445795     -8311.6026
   2   1.0000     -65.095497     -1771.3385
   3   1.0000     -58.450249     -1590.5121
   4   1.0000     -58.450143     -1590.5092
   5   1.0000     -58.450011     -1590.5057
   6   1.0000     -37.740375     -1026.9678
   7   1.0000     -32.780743      -892.0094
   8   1.0000     -32.779365      -891.9719
   9   1.0000     -32.745620      -891.0536
  10   1.0000      -9.768276      -265.8083
  11   1.0000      -7.377049      -200.7397
  12   1.0000      -7.375343      -200.6933
  13   1.0000      -7.374900      -200.6812
  14   1.0000      -4.756559      -129.4326
  15   1.0000      -3.202219       -87.1368
  16   1.0000      -3.196393       -86.9783
  17   1.0000      -3.121106       -84.9296
  18   1.0000      -3.118972       -84.8716
  19   1.0000      -3.118166       -84.8496
  20   1.0000      -3.117711       -84.8372
  21   1.0000      -3.115730       -84.7833
  22   1.0000      -3.115717       -84.7830
  23   1.0000      -0.938091       -25.5268
  24   1.0000      -0.607733       -16.5373
  25   1.0000      -0.550449       -14.9785
  26   1.0000      -0.527023       -14.3410
  27   1.0000      -0.516379       -14.0514
  28   1.0000      -0.509838       -13.8734
  29   1.0000      -0.389088       -10.5876
  30   1.0000      -0.368119       -10.0170
  31   1.0000      -0.362482        -9.8636
  32   0.0000      -0.013980        -0.3804
  33   0.0000       0.049162         1.3378
  34   0.0000       0.051962         1.4140
  35   0.0000       0.080286         2.1847
  36   0.0000       0.122922         3.3449

                 SPIN DOWN ORBITALS
  NO   OCC          E(Eh)            E(eV)
   0   1.0000    -489.954640    -13332.3436
   1   1.0000    -305.445183     -8311.5860
   2   1.0000     -65.095459     -1771.3375
   3   1.0000     -58.450278     -1590.5129
   4   1.0000     -58.449969     -1590.5045
   5   1.0000     -58.449938     -1590.5037
   6   1.0000     -37.702608     -1025.9401
   7   1.0000     -32.733422      -890.7217
   8   1.0000     -32.731532      -890.6703
   9   1.0000     -32.729119      -890.6046
  10   1.0000      -9.768155      -265.8050
  11   1.0000      -7.377150      -200.7425
  12   1.0000      -7.374854      -200.6800
  13   1.0000      -7.374806      -200.6787
  14   1.0000      -4.656224      -126.7023
  15   1.0000      -3.119185       -84.8773
  16   1.0000      -3.118044       -84.8463
  17   1.0000      -3.117867       -84.8415
  18   1.0000      -3.115573       -84.7790
  19   1.0000      -3.115568       -84.7789
  20   1.0000      -3.086128       -83.9778
  21   1.0000      -3.037241       -82.6475
  22   1.0000      -3.034232       -82.5656
  23   1.0000      -0.936500       -25.4835
  24   1.0000      -0.529676       -14.4132
  25   1.0000      -0.482837       -13.1387
  26   1.0000      -0.467689       -12.7265
  27   1.0000      -0.451828       -12.2949
  28   1.0000      -0.381003       -10.3676
  29   1.0000      -0.373899       -10.1743
  30   1.0000      -0.357888        -9.7386
  31   0.0000      -0.011169        -0.3039
  32   0.0000       0.048553         1.3212
  33   0.0000       0.051185         1.3928
  34   0.0000       0.081271         2.2115
  35   0.0000       0.125564         3.4168

E(0)                                       ...  -4079.362531334
E(0)                                       ...  -4079.362531334
E(CORR)                                    ...     -1.289791726
E(TOT)                                     ...  -4080.652323059
E(CCSD(T))                                 ...  -4080.692145105

MULLIKEN ATOMIC CHARGES AND SPIN DENSITIES
------------------------------------------
   0 Ni:    0.446882    0.967271
   1 Br:   -0.446882    0.032729
Sum of atomic charges       :    0.0000000

LOEWDIN ATOMIC CHARGES AND SPIN DENSITIES
-----------------------------------------
   0 Ni:   -0.382023    0.955962
   1 Br:    0.382023    0.044038

  Mayer bond orders larger than 0.100000
B(  0-Ni,  1-Br) :   1.0033

FINAL SINGLE POINT ENERGY     -4080.949700606808

DIPOLE MOMENT
-------------
                                X             Y             Z
Electronic contribution:     -0.00000       0.00000       3.42624
Nuclear contribution   :      0.00000       0.00000      -5.43759
                        -----------------------------------------
Total Dipole Moment    :     -0.00000       0.00000      -2.01135
                        -----------------------------------------
Magnitude (a.u.)       :      2.01135
Magnitude (Debye)      :      5.11244

Rotational constants in cm-1:     0.000000     0.104547     0.104547
Rotational constants in MHz :     0.000000  3134.234625  3134.234625

                             ****ORCA TERMINATED NORMALLY****
TOTAL RUN TIME: 0 days 0 hours 11 minutes 25 seconds 820 msec
