                         Program Version 4.2.0 -  RELEASE  -
|  1> #
|  2> # 47_NiO ccsd(t)/cbs
|  3> #
|  4> ! ccsd(t) extrapolate(3/4,def2) verytightscf
|  5>
|  6> *xyz 0 3
|  7>   Ni  0.00000000000000      0.00000000000000      0.18512940996137
|  8>   O   0.00000000000000      0.00000000000000      1.81487059003863
|  9> *
| 10>
| 11> %maxcore 5000
| 12> %pal
| 13> nprocs 24
| 14> end
| 15>
| 16>
| 17>                          ****END OF INPUT****
 Total Charge           Charge          ....    0
 Multiplicity           Mult            ....    3
 Number of Electrons    NEL             ....   36
E(0)                                       ...  -1581.655559614
E(0)                                       ...  -1581.655559614
E(CORR)                                    ...     -0.870258547
E(TOT)                                     ...  -1582.525818161
E(CCSD(T))                                 ...  -1582.571017136

CARTESIAN COORDINATES (ANGSTROEM)
---------------------------------
  Ni     0.000000    0.000000    0.185129
  O      0.000000    0.000000    1.814871

 Multiplicity           Mult            ....    3
 Number of Electrons    NEL             ....   36
 Basis Dimension        Dim             ....  157

ORBITAL ENERGIES
----------------
                 SPIN UP ORBITALS
  NO   OCC          E(Eh)            E(eV)
   0   1.0000    -305.639180     -8316.8649
   1   1.0000     -37.974667     -1033.3432
   2   1.0000     -33.008112      -898.1964
   3   1.0000     -32.994302      -897.8206
   4   1.0000     -32.991410      -897.7419
   5   1.0000     -20.522572      -558.4476
   6   1.0000      -5.009278      -136.3094
   7   1.0000      -3.444103       -93.7188
   8   1.0000      -3.412711       -92.8646
   9   1.0000      -3.405656       -92.6726
  10   1.0000      -1.153714       -31.3941
  11   1.0000      -0.816958       -22.2306
  12   1.0000      -0.790705       -21.5162
  13   1.0000      -0.765130       -20.8202
  14   1.0000      -0.738964       -20.1082
  15   1.0000      -0.730999       -19.8915
  16   1.0000      -0.451270       -12.2797
  17   1.0000      -0.441201       -12.0057
  18   1.0000      -0.318938        -8.6787
  19   0.0000       0.037979         1.0335
  20   0.0000       0.039552         1.0763
  21   0.0000       0.053351         1.4518
  22   0.0000       0.074423         2.0252
  23   0.0000       0.106798         2.9061

                 SPIN DOWN ORBITALS
  NO   OCC          E(Eh)            E(eV)
   0   1.0000    -305.636233     -8316.7847
   1   1.0000     -37.899372     -1031.2943
   2   1.0000     -32.927562      -896.0045
   3   1.0000     -32.925168      -895.9394
   4   1.0000     -32.924908      -895.9323
   5   1.0000     -20.555566      -559.3454
   6   1.0000      -4.812875      -130.9650
   7   1.0000      -3.196489       -86.9809
   8   1.0000      -3.196152       -86.9717
   9   1.0000      -3.179309       -86.5134
  10   1.0000      -1.288258       -35.0553
  11   1.0000      -0.715185       -19.4612
  12   1.0000      -0.712607       -19.3910
  13   1.0000      -0.659731       -17.9522
  14   1.0000      -0.570868       -15.5341
  15   1.0000      -0.501140       -13.6367
  16   1.0000      -0.484102       -13.1731
  17   0.0000       0.004243         0.1155
  18   0.0000       0.055478         1.5096
  19   0.0000       0.056717         1.5433
  20   0.0000       0.074067         2.0155
  21   0.0000       0.133769         3.6400

E(0)                                       ...  -1581.693492951
E(0)                                       ...  -1581.693492951
E(CORR)                                    ...     -0.914115131
E(TOT)                                     ...  -1582.607608082
E(CCSD(T))                                 ...  -1582.658632459

MULLIKEN ATOMIC CHARGES AND SPIN DENSITIES
------------------------------------------
   0 Ni:    0.603369    1.735202
   1 O :   -0.603369    0.264798
Sum of atomic charges       :   -0.0000000

LOEWDIN ATOMIC CHARGES AND SPIN DENSITIES
-----------------------------------------
   0 Ni:    0.072930    1.697247
   1 O :   -0.072930    0.302753

  Mayer bond orders larger than 0.100000
B(  0-Ni,  1-O ) :   2.3962

FINAL SINGLE POINT ENERGY     -1582.700658790235

DIPOLE MOMENT
-------------
                                X             Y             Z
Electronic contribution:     -0.00000      -0.00000      -3.30862
Nuclear contribution   :      0.00000       0.00000       0.89170
                        -----------------------------------------
Total Dipole Moment    :     -0.00000      -0.00000      -2.41692
                        -----------------------------------------
Magnitude (a.u.)       :      2.41692
Magnitude (Debye)      :      6.14332

Rotational constants in cm-1:     0.000000     0.504828     0.504828
Rotational constants in MHz :     0.000000 15134.363944 15134.363944

                             ****ORCA TERMINATED NORMALLY****
TOTAL RUN TIME: 0 days 0 hours 5 minutes 14 seconds 81 msec
