                         Program Version 4.2.0 -  RELEASE  -
|  1> #
|  2> # 48_NiS ccsd(t)/cbs
|  3> #
|  4> ! ccsd(t) extrapolate(3/4,def2) verytightscf slowconv
|  5>
|  6> *xyz 0 3
|  7>   Ni  0.00000000000000      0.00000000000000      0.01491413562016
|  8>   S   0.00000000000000      0.00000000000000      1.98508586437984
|  9> *
| 10>
| 11> %maxcore 5000
| 12>
| 13> %scf
| 14> MaxIter 1500
| 15> DIISMaxEq 15
| 16> directresetfreq 1
| 17> end
| 18>
| 19> %pal
| 20> nprocs 24
| 21> end
| 22>
| 23>
| 24>                          ****END OF INPUT****
 Total Charge           Charge          ....    0
 Multiplicity           Mult            ....    3
 Number of Electrons    NEL             ....   44
E(0)                                       ...  -1904.340920252
E(0)                                       ...  -1904.340920252
E(CORR)                                    ...     -0.873943849
E(TOT)                                     ...  -1905.214864101
E(CCSD(T))                                 ...  -1905.264410942

CARTESIAN COORDINATES (ANGSTROEM)
---------------------------------
  Ni     0.000000    0.000000    0.014914
  S      0.000000    0.000000    1.985086

 Multiplicity           Mult            ....    3
 Number of Electrons    NEL             ....   44
 Basis Dimension        Dim             ....  170

ORBITAL ENERGIES
----------------
                 SPIN UP ORBITALS
  NO   OCC          E(Eh)            E(eV)
   0   1.0000    -305.663160     -8317.5174
   1   1.0000     -91.896091     -2500.6198
   2   1.0000     -37.998569     -1033.9936
   3   1.0000     -33.046168      -899.2319
   4   1.0000     -33.009719      -898.2401
   5   1.0000     -33.009719      -898.2401
   6   1.0000      -8.899394      -242.1648
   7   1.0000      -6.580118      -179.0541
   8   1.0000      -6.580118      -179.0541
   9   1.0000      -6.573238      -178.8669
  10   1.0000      -5.028437      -136.8307
  11   1.0000      -3.493441       -95.0613
  12   1.0000      -3.411582       -92.8339
  13   1.0000      -3.411582       -92.8339
  14   1.0000      -0.867146       -23.5962
  15   1.0000      -0.835482       -22.7346
  16   1.0000      -0.835482       -22.7346
  17   1.0000      -0.745910       -20.2972
  18   1.0000      -0.744135       -20.2490
  19   1.0000      -0.744135       -20.2490
  20   1.0000      -0.342129        -9.3098
  21   1.0000      -0.329494        -8.9660
  22   1.0000      -0.329494        -8.9660
  23   0.0000      -0.048997        -1.3333
  24   0.0000       0.039739         1.0813
  25   0.0000       0.039739         1.0813
  26   0.0000       0.070043         1.9060
  27   0.0000       0.097088         2.6419

                 SPIN DOWN ORBITALS
  NO   OCC          E(Eh)            E(eV)
   0   1.0000    -305.660834     -8317.4541
   1   1.0000     -91.898615     -2500.6884
   2   1.0000     -37.923443     -1031.9493
   3   1.0000     -32.950152      -896.6192
   4   1.0000     -32.950152      -896.6192
   5   1.0000     -32.947965      -896.5597
   6   1.0000      -8.901701      -242.2276
   7   1.0000      -6.590488      -179.3363
   8   1.0000      -6.579074      -179.0257
   9   1.0000      -6.579074      -179.0257
  10   1.0000      -4.833659      -131.5306
  11   1.0000      -3.224426       -87.7411
  12   1.0000      -3.224426       -87.7411
  13   1.0000      -3.178547       -86.4927
  14   1.0000      -0.889983       -24.2177
  15   1.0000      -0.714429       -19.4406
  16   1.0000      -0.655129       -17.8270
  17   1.0000      -0.655129       -17.8270
  18   1.0000      -0.404158       -10.9977
  19   1.0000      -0.343939        -9.3591
  20   1.0000      -0.343939        -9.3591
  21   0.0000      -0.027651        -0.7524
  22   0.0000       0.046268         1.2590
  23   0.0000       0.046268         1.2590
  24   0.0000       0.076389         2.0787
  25   0.0000       0.111264         3.0276

E(0)                                       ...  -1904.386713965
E(0)                                       ...  -1904.386713965
E(CORR)                                    ...     -0.913675362
E(TOT)                                     ...  -1905.300389327
E(CCSD(T))                                 ...  -1905.356502250

MULLIKEN ATOMIC CHARGES AND SPIN DENSITIES
------------------------------------------
   0 Ni:   -0.031477    0.688023
   1 S :    0.031477    1.311977
Sum of atomic charges       :   -0.0000000

LOEWDIN ATOMIC CHARGES AND SPIN DENSITIES
-----------------------------------------
   0 Ni:   -0.693694    0.858536
   1 S :    0.693694    1.141464

  Mayer bond orders larger than 0.100000
B(  0-Ni,  1-S ) :   2.1958

FINAL SINGLE POINT ENERGY     -1905.397104304770

DIPOLE MOMENT
-------------
                                X             Y             Z
Electronic contribution:     -0.00000       0.00000      -2.00384
Nuclear contribution   :      0.00000       0.00000       1.70320
                        -----------------------------------------
Total Dipole Moment    :     -0.00000       0.00000      -0.30064
                        -----------------------------------------
Magnitude (a.u.)       :      0.30064
Magnitude (Debye)      :      0.76417

Rotational constants in cm-1:     0.000000     0.209451     0.209451
Rotational constants in MHz :     0.000000  6279.170942  6279.170942

                             ****ORCA TERMINATED NORMALLY****
TOTAL RUN TIME: 0 days 0 hours 6 minutes 50 seconds 16 msec
