                         Program Version 4.2.0 -  RELEASE  -
|  1> #
|  2> # 49_CuH ccsd(t)/cbs
|  3> #
|  4> ! ccsd(t) extrapolate(3/4,def2) verytightscf
|  5>
|  6> *xyz 0 1
|  7>   Cu  0.00000000000000      0.00000000000000      0.26188782360473
|  8>   H   0.00000000000000      0.00000000000000      1.73811217639527
|  9> *
| 10>
| 11> %maxcore 5000
| 12> %pal
| 13> nprocs 24
| 14> end
| 15>
| 16>
| 17>                          ****END OF INPUT****
 Total Charge           Charge          ....    0
 Multiplicity           Mult            ....    1
 Number of Electrons    NEL             ....   30
E(0)                                       ...  -1639.472760749
E(0)                                       ...  -1639.472760749
E(CORR)                                    ...     -0.769361433
E(TOT)                                     ...  -1640.242122182
E(CCSD(T))                                 ...  -1640.265603547

CARTESIAN COORDINATES (ANGSTROEM)
---------------------------------
  Cu     0.000000    0.000000    0.261888
  H      0.000000    0.000000    1.738112

 Multiplicity           Mult            ....    1
 Number of Electrons    NEL             ....   30
 Basis Dimension        Dim             ....  130

ORBITAL ENERGIES
----------------

  NO   OCC          E(Eh)            E(eV)
   0   2.0000    -328.809462     -8947.3603
   1   2.0000     -40.840064     -1111.3146
   2   2.0000     -35.638746      -969.7796
   3   2.0000     -35.638746      -969.7796
   4   2.0000     -35.637507      -969.7459
   5   2.0000      -5.029297      -136.8541
   6   2.0000      -3.343148       -90.9717
   7   2.0000      -3.338743       -90.8518
   8   2.0000      -3.338743       -90.8518
   9   2.0000      -0.515548       -14.0288
  10   2.0000      -0.507208       -13.8018
  11   2.0000      -0.507208       -13.8018
  12   2.0000      -0.505355       -13.7514
  13   2.0000      -0.505355       -13.7514
  14   2.0000      -0.336807        -9.1650
  15   0.0000       0.009134         0.2485
  16   0.0000       0.050387         1.3711
  17   0.0000       0.050387         1.3711
  18   0.0000       0.091914         2.5011
  19   0.0000       0.124444         3.3863

E(0)                                       ...  -1639.513605950
E(0)                                       ...  -1639.513605950
E(CORR)                                    ...     -0.797895247
E(TOT)                                     ...  -1640.311501197
E(CCSD(T))                                 ...  -1640.340833327

MULLIKEN ATOMIC CHARGES
-----------------------
   0 Cu:    0.174930
   1 H :   -0.174930
Sum of atomic charges:   -0.0000000

LOEWDIN ATOMIC CHARGES
----------------------
   0 Cu:    0.209355
   1 H :   -0.209355

  Mayer bond orders larger than 0.100000
B(  0-Cu,  1-H ) :   0.9849

FINAL SINGLE POINT ENERGY     -1640.371929330897

DIPOLE MOMENT
-------------
                                X             Y             Z
Electronic contribution:     -0.00000      -0.00000      -2.60837
Nuclear contribution   :      0.00000       0.00000       1.48294
                        -----------------------------------------
Total Dipole Moment    :     -0.00000      -0.00000      -1.12543
                        -----------------------------------------
Magnitude (a.u.)       :      1.12543
Magnitude (Debye)      :      2.86061

Rotational constants in cm-1:     0.000000     7.795898     7.795898
Rotational constants in MHz :     0.000000 233715.143643 233715.143643

                             ****ORCA TERMINATED NORMALLY****
TOTAL RUN TIME: 0 days 0 hours 0 minutes 40 seconds 459 msec
