                         Program Version 4.2.0 -  RELEASE  -
|  1> #
|  2> # 50_CuF ccsd(t)/cbs
|  3> #
|  4> ! ccsd(t) extrapolate(3/4,def2) verytightscf
|  5>
|  6> *xyz 0 1
|  7>   Cu  0.00000000000000      0.00000000000000      0.12224745624860
|  8>   F   0.00000000000000      0.00000000000000      1.87775254375140
|  9> *
| 10>
| 11> %maxcore 5000
| 12> %pal
| 13> nprocs 24
| 14> end
| 15>
| 16>
| 17>                          ****END OF INPUT****
 Total Charge           Charge          ....    0
 Multiplicity           Mult            ....    1
 Number of Electrons    NEL             ....   38
E(0)                                       ...  -1738.417152594
E(0)                                       ...  -1738.417152594
E(CORR)                                    ...     -0.994758743
E(TOT)                                     ...  -1739.411911337
E(CCSD(T))                                 ...  -1739.438964128

CARTESIAN COORDINATES (ANGSTROEM)
---------------------------------
  Cu     0.000000    0.000000    0.122247
  F      0.000000    0.000000    1.877753

 Multiplicity           Mult            ....    1
 Number of Electrons    NEL             ....   38
 Basis Dimension        Dim             ....  157

ORBITAL ENERGIES
----------------

  NO   OCC          E(Eh)            E(eV)
   0   2.0000    -328.819181     -8947.6248
   1   2.0000     -40.846957     -1111.5022
   2   2.0000     -35.647632      -970.0214
   3   2.0000     -35.647632      -970.0214
   4   2.0000     -35.643140      -969.8991
   5   2.0000     -26.133060      -711.1167
   6   2.0000      -5.041394      -137.1833
   7   2.0000      -3.355837       -91.3170
   8   2.0000      -3.354572       -91.2825
   9   2.0000      -3.354572       -91.2825
  10   2.0000      -1.401355       -38.1328
  11   2.0000      -0.571553       -15.5528
  12   2.0000      -0.553353       -15.0575
  13   2.0000      -0.553353       -15.0575
  14   2.0000      -0.522993       -14.2314
  15   2.0000      -0.522993       -14.2314
  16   2.0000      -0.465267       -12.6606
  17   2.0000      -0.465267       -12.6606
  18   2.0000      -0.438030       -11.9194
  19   0.0000      -0.011419        -0.3107
  20   0.0000       0.050824         1.3830
  21   0.0000       0.050824         1.3830
  22   0.0000       0.081976         2.2307
  23   0.0000       0.114548         3.1170

E(0)                                       ...  -1738.464124812
E(0)                                       ...  -1738.464124812
E(CORR)                                    ...     -1.045359383
E(TOT)                                     ...  -1739.509484195
E(CCSD(T))                                 ...  -1739.544225314

MULLIKEN ATOMIC CHARGES
-----------------------
   0 Cu:    0.587670
   1 F :   -0.587670
Sum of atomic charges:   -0.0000000

LOEWDIN ATOMIC CHARGES
----------------------
   0 Cu:    0.100168
   1 F :   -0.100168

  Mayer bond orders larger than 0.100000
B(  0-Cu,  1-F ) :   0.7053

FINAL SINGLE POINT ENERGY     -1739.593872186505

DIPOLE MOMENT
-------------
                                X             Y             Z
Electronic contribution:     -0.00000       0.00000      -2.90503
Nuclear contribution   :      0.00000       0.00000       0.84427
                        -----------------------------------------
Total Dipole Moment    :     -0.00000       0.00000      -2.06076
                        -----------------------------------------
Magnitude (a.u.)       :      2.06076
Magnitude (Debye)      :      5.23804

Rotational constants in cm-1:     0.000000     0.374004     0.374004
Rotational constants in MHz :     0.000000 11212.347169 11212.347169

                             ****ORCA TERMINATED NORMALLY****
TOTAL RUN TIME: 0 days 0 hours 1 minutes 7 seconds 262 msec
