                         Program Version 4.2.0 -  RELEASE  -
|  1> #
|  2> # 51_CuCl ccsd(t)/cbs
|  3> #
|  4> ! ccsd(t) extrapolate(3/4,def2) verytightscf
|  5>
|  6> *xyz 0 1
|  7>   Cu  0.00000000000000      0.00000000000000     -0.03459121817691
|  8>   Cl  0.00000000000000      0.00000000000000      2.03459121817691
|  9> *
| 10>
| 11> %maxcore 5000
| 12> %pal
| 13> nprocs 24
| 14> end
| 15>
| 16>
| 17>                          ****END OF INPUT****
 Total Charge           Charge          ....    0
 Multiplicity           Mult            ....    1
 Number of Electrons    NEL             ....   46
E(0)                                       ...  -2098.493287218
E(0)                                       ...  -2098.493287218
E(CORR)                                    ...     -0.941438121
E(TOT)                                     ...  -2099.434725339
E(CCSD(T))                                 ...  -2099.464013816

CARTESIAN COORDINATES (ANGSTROEM)
---------------------------------
  Cu     0.000000    0.000000   -0.034591
  Cl     0.000000    0.000000    2.034591

 Multiplicity           Mult            ....    1
 Number of Electrons    NEL             ....   46
 Basis Dimension        Dim             ....  170

ORBITAL ENERGIES
----------------

  NO   OCC          E(Eh)            E(eV)
   0   2.0000    -328.839443     -8948.1762
   1   2.0000    -104.752384     -2850.4573
   2   2.0000     -40.867253     -1112.0545
   3   2.0000     -35.667224      -970.5545
   4   2.0000     -35.667224      -970.5545
   5   2.0000     -35.664600      -970.4831
   6   2.0000     -10.478140      -285.1247
   7   2.0000      -7.944959      -216.1933
   8   2.0000      -7.944135      -216.1709
   9   2.0000      -7.944135      -216.1709
  10   2.0000      -5.060792      -137.7112
  11   2.0000      -3.376498       -91.8792
  12   2.0000      -3.373026       -91.7847
  13   2.0000      -3.373026       -91.7847
  14   2.0000      -0.999131       -27.1877
  15   2.0000      -0.550634       -14.9835
  16   2.0000      -0.550634       -14.9835
  17   2.0000      -0.549054       -14.9405
  18   2.0000      -0.540388       -14.7047
  19   2.0000      -0.540388       -14.7047
  20   2.0000      -0.408261       -11.1093
  21   2.0000      -0.389459       -10.5977
  22   2.0000      -0.389459       -10.5977
  23   0.0000      -0.013698        -0.3727
  24   0.0000       0.050411         1.3718
  25   0.0000       0.050411         1.3718
  26   0.0000       0.078734         2.1425
  27   0.0000       0.110144         2.9972

E(0)                                       ...  -2098.547663531
E(0)                                       ...  -2098.547663531
E(CORR)                                    ...     -0.988161301
E(TOT)                                     ...  -2099.535824832
E(CCSD(T))                                 ...  -2099.572937343

MULLIKEN ATOMIC CHARGES
-----------------------
   0 Cu:    0.464492
   1 Cl:   -0.464492
Sum of atomic charges:   -0.0000000

LOEWDIN ATOMIC CHARGES
----------------------
   0 Cu:   -0.244578
   1 Cl:    0.244578

  Mayer bond orders larger than 0.100000
B(  0-Cu,  1-Cl) :   0.9541

FINAL SINGLE POINT ENERGY     -2099.620832379524

DIPOLE MOMENT
-------------
                                X             Y             Z
Electronic contribution:     -0.00000      -0.00000      -4.16904
Nuclear contribution   :      0.00000       0.00000       2.06219
                        -----------------------------------------
Total Dipole Moment    :     -0.00000      -0.00000      -2.10685
                        -----------------------------------------
Magnitude (a.u.)       :      2.10685
Magnitude (Debye)      :      5.35519

Rotational constants in cm-1:     0.000000     0.173013     0.173013
Rotational constants in MHz :     0.000000  5186.804112  5186.804112

                             ****ORCA TERMINATED NORMALLY****
TOTAL RUN TIME: 0 days 0 hours 1 minutes 16 seconds 742 msec
