                         Program Version 4.2.0 -  RELEASE  -
|  1> #
|  2> # 52_CuBr ccsd(t)/cbs
|  3> #
|  4> ! ccsd(t) extrapolate(3/4,def2) verytightscf
|  5>
|  6> *xyz 0 1
|  7>   Cu  0.00000000000000      0.00000000000000     -0.09600479667781
|  8>   Br  0.00000000000000      0.00000000000000      2.09600479667781
|  9> *
| 10>
| 11> %maxcore 5000
| 12> %pal
| 13> nprocs 24
| 14> end
| 15>
| 16>
| 17>                          ****END OF INPUT****
 Total Charge           Charge          ....    0
 Multiplicity           Mult            ....    1
 Number of Electrons    NEL             ....   64
E(0)                                       ...  -4211.407589867
E(0)                                       ...  -4211.407589867
E(CORR)                                    ...     -1.013679802
E(TOT)                                     ...  -4212.421269669
E(CCSD(T))                                 ...  -4212.451410585

CARTESIAN COORDINATES (ANGSTROEM)
---------------------------------
  Cu     0.000000    0.000000   -0.096005
  Br     0.000000    0.000000    2.096005

 Multiplicity           Mult            ....    1
 Number of Electrons    NEL             ....   64
 Basis Dimension        Dim             ....  189

ORBITAL ENERGIES
----------------

  NO   OCC          E(Eh)            E(eV)
   0   2.0000    -489.954549    -13332.3411
   1   2.0000    -328.843741     -8948.2931
   2   2.0000     -65.095157     -1771.3293
   3   2.0000     -58.449999     -1590.5053
   4   2.0000     -58.449689     -1590.4969
   5   2.0000     -58.449689     -1590.4969
   6   2.0000     -40.871242     -1112.1630
   7   2.0000     -35.671084      -970.6595
   8   2.0000     -35.671084      -970.6595
   9   2.0000     -35.668911      -970.6004
  10   2.0000      -9.767681      -265.7921
  11   2.0000      -7.376634      -200.7284
  12   2.0000      -7.374363      -200.6666
  13   2.0000      -7.374363      -200.6666
  14   2.0000      -5.064668      -137.8166
  15   2.0000      -3.380511       -91.9884
  16   2.0000      -3.376874       -91.8894
  17   2.0000      -3.376874       -91.8894
  18   2.0000      -3.118660       -84.8631
  19   2.0000      -3.117543       -84.8326
  20   2.0000      -3.117543       -84.8326
  21   2.0000      -3.114923       -84.7614
  22   2.0000      -3.114923       -84.7614
  23   2.0000      -0.934802       -25.4373
  24   2.0000      -0.551767       -15.0143
  25   2.0000      -0.551767       -15.0143
  26   2.0000      -0.547504       -14.8983
  27   2.0000      -0.544035       -14.8039
  28   2.0000      -0.544035       -14.8039
  29   2.0000      -0.391185       -10.6447
  30   2.0000      -0.363797        -9.8994
  31   2.0000      -0.363797        -9.8994
  32   0.0000      -0.014394        -0.3917
  33   0.0000       0.049866         1.3569
  34   0.0000       0.049866         1.3569
  35   0.0000       0.079963         2.1759
  36   0.0000       0.108752         2.9593

E(0)                                       ...  -4211.498087355
E(0)                                       ...  -4211.498087355
E(CORR)                                    ...     -1.337096161
E(TOT)                                     ...  -4212.835183516
E(CCSD(T))                                 ...  -4212.875460476

MULLIKEN ATOMIC CHARGES
-----------------------
   0 Cu:    0.418277
   1 Br:   -0.418277
Sum of atomic charges:   -0.0000000

LOEWDIN ATOMIC CHARGES
----------------------
   0 Cu:   -0.350919
   1 Br:    0.350919

  Mayer bond orders larger than 0.100000
B(  0-Cu,  1-Br) :   1.0072

FINAL SINGLE POINT ENERGY     -4213.135001151441

DIPOLE MOMENT
-------------
                                X             Y             Z
Electronic contribution:      0.00000       0.00000       0.61009
Nuclear contribution   :      0.00000       0.00000      -2.68116
                        -----------------------------------------
Total Dipole Moment    :      0.00000       0.00000      -2.07107
                        -----------------------------------------
Magnitude (a.u.)       :      2.07107
Magnitude (Debye)      :      5.26425

Rotational constants in cm-1:     0.000000     0.099117     0.099117
Rotational constants in MHz :     0.000000  2971.467067  2971.467067

                             ****ORCA TERMINATED NORMALLY****
TOTAL RUN TIME: 0 days 0 hours 2 minutes 55 seconds 752 msec
