                         Program Version 4.2.0 -  RELEASE  -
|  1> #
|  2> # 53_CuO ccsd(t)/cbs
|  3> #
|  4> ! ccsd(t) extrapolate(3/4,def2) verytightscf slowconv
|  5>
|  6> *xyz 0 2
|  7>   Cu  0.00000000000000      0.00000000000000      0.13870993735929
|  8>   O   0.00000000000000      0.00000000000000      1.86129006264071
|  9> *
| 10>
| 11> %maxcore 5000
| 12>
| 13> %scf
| 14> MaxIter 1500
| 15> DIISMaxEq 15
| 16> directresetfreq 1
| 17> end
| 18>
| 19> %pal
| 20> nprocs 24
| 21> end
| 22>
| 23>
| 24>                          ****END OF INPUT****
 Total Charge           Charge          ....    0
 Multiplicity           Mult            ....    2
 Number of Electrons    NEL             ....   37
E(0)                                       ...  -1713.674834846
E(0)                                       ...  -1713.674834846
E(CORR)                                    ...     -0.986024996
E(TOT)                                     ...  -1714.660859842
E(CCSD(T))                                 ...  -1714.698662064

CARTESIAN COORDINATES (ANGSTROEM)
---------------------------------
  Cu     0.000000    0.000000    0.138710
  O      0.000000    0.000000    1.861290

 Multiplicity           Mult            ....    2
 Number of Electrons    NEL             ....   37
 Basis Dimension        Dim             ....  157

ORBITAL ENERGIES
----------------
                 SPIN UP ORBITALS
  NO   OCC          E(Eh)            E(eV)
   0   1.0000    -329.051455     -8953.9453
   1   1.0000     -41.116402     -1118.8342
   2   1.0000     -35.937786      -977.9169
   3   1.0000     -35.899167      -976.8660
   4   1.0000     -35.899167      -976.8660
   5   1.0000     -20.457031      -556.6641
   6   1.0000      -5.322023      -144.8196
   7   1.0000      -3.687204      -100.3339
   8   1.0000      -3.604353       -98.0794
   9   1.0000      -3.604353       -98.0794
  10   1.0000      -1.128452       -30.7068
  11   1.0000      -0.827735       -22.5238
  12   1.0000      -0.788444       -21.4547
  13   1.0000      -0.788444       -21.4547
  14   1.0000      -0.752586       -20.4789
  15   1.0000      -0.752586       -20.4789
  16   1.0000      -0.384481       -10.4623
  17   1.0000      -0.364775        -9.9260
  18   1.0000      -0.364775        -9.9260
  19   0.0000      -0.048000        -1.3062
  20   0.0000       0.039983         1.0880
  21   0.0000       0.039983         1.0880
  22   0.0000       0.069948         1.9034
  23   0.0000       0.092009         2.5037

                 SPIN DOWN ORBITALS
  NO   OCC          E(Eh)            E(eV)
   0   1.0000    -329.050416     -8953.9170
   1   1.0000     -41.079534     -1117.8310
   2   1.0000     -35.875915      -976.2333
   3   1.0000     -35.875915      -976.2333
   4   1.0000     -35.875701      -976.2275
   5   1.0000     -20.451906      -556.5246
   6   1.0000      -5.230869      -142.3392
   7   1.0000      -3.546356       -96.5013
   8   1.0000      -3.546356       -96.5013
   9   1.0000      -3.476594       -94.6029
  10   1.0000      -1.100965       -29.9588
  11   1.0000      -0.759928       -20.6787
  12   1.0000      -0.759928       -20.6787
  13   1.0000      -0.707454       -19.2508
  14   1.0000      -0.707454       -19.2508
  15   1.0000      -0.364342        -9.9143
  16   1.0000      -0.360303        -9.8043
  17   1.0000      -0.360303        -9.8043
  18   0.0000      -0.051595        -1.4040
  19   0.0000       0.040815         1.1106
  20   0.0000       0.040815         1.1106
  21   0.0000       0.060515         1.6467
  22   0.0000       0.081702         2.2232

E(0)                                       ...  -1713.724693587
E(0)                                       ...  -1713.724693587
E(CORR)                                    ...     -1.026668906
E(TOT)                                     ...  -1714.751362493
E(CCSD(T))                                 ...  -1714.797405514

MULLIKEN ATOMIC CHARGES AND SPIN DENSITIES
------------------------------------------
   0 Cu:    0.356096    0.418705
   1 O :   -0.356096    0.581295
Sum of atomic charges       :   -0.0000000

LOEWDIN ATOMIC CHARGES AND SPIN DENSITIES
-----------------------------------------
   0 Cu:   -0.202888    0.352205
   1 O :    0.202888    0.647795

  Mayer bond orders larger than 0.100000
B(  0-Cu,  1-O ) :   1.4616

FINAL SINGLE POINT ENERGY     -1714.840483860474

DIPOLE MOMENT
-------------
                                X             Y             Z
Electronic contribution:      0.00000       0.00000      -3.12715
Nuclear contribution   :      0.00000       0.00000       1.81807
                        -----------------------------------------
Total Dipole Moment    :      0.00000       0.00000      -1.30908
                        -----------------------------------------
Magnitude (a.u.)       :      1.30908
Magnitude (Debye)      :      3.32743

Rotational constants in cm-1:     0.000000     0.444492     0.444492
Rotational constants in MHz :     0.000000 13325.547784 13325.547784

                             ****ORCA TERMINATED NORMALLY****
TOTAL RUN TIME: 0 days 0 hours 5 minutes 46 seconds 944 msec
