                         Program Version 4.2.0 -  RELEASE  -
|  1> #
|  2> # 54_CuS ccsd(t)/cbs
|  3> #
|  4> ! ccsd(t) extrapolate(3/4,def2) verytightscf
|  5>
|  6> *xyz 0 2
|  7>   Cu  0.00000000000000      0.00000000000000     -0.02892798555449
|  8>   S   0.00000000000000      0.00000000000000      2.02892798555449
|  9> *
| 10>
| 11> %maxcore 5000
| 12> %pal
| 13> nprocs 24
| 14> end
| 15>
| 16>
| 17>                          ****END OF INPUT****
 Total Charge           Charge          ....    0
 Multiplicity           Mult            ....    2
 Number of Electrons    NEL             ....   45
E(0)                                       ...  -2036.470822151
E(0)                                       ...  -2036.470822151
E(CORR)                                    ...     -0.905932453
E(TOT)                                     ...  -2037.376754603
E(CCSD(T))                                 ...  -2037.407606585

CARTESIAN COORDINATES (ANGSTROEM)
---------------------------------
  Cu     0.000000    0.000000   -0.028928
  S      0.000000    0.000000    2.028928

 Multiplicity           Mult            ....    2
 Number of Electrons    NEL             ....   45
 Basis Dimension        Dim             ....  170

ORBITAL ENERGIES
----------------
                 SPIN UP ORBITALS
  NO   OCC          E(Eh)            E(eV)
   0   1.0000    -328.838530     -8948.1513
   1   1.0000     -91.914657     -2501.1250
   2   1.0000     -40.869444     -1112.1141
   3   1.0000     -35.669215      -970.6087
   4   1.0000     -35.667750      -970.5688
   5   1.0000     -35.667199      -970.5538
   6   1.0000      -8.916540      -242.6314
   7   1.0000      -6.611837      -179.9172
   8   1.0000      -6.594523      -179.4461
   9   1.0000      -6.593484      -179.4178
  10   1.0000      -5.061365      -137.7267
  11   1.0000      -3.377803       -91.9147
  12   1.0000      -3.373087       -91.7864
  13   1.0000      -3.370334       -91.7114
  14   1.0000      -0.894028       -24.3277
  15   1.0000      -0.554347       -15.0846
  16   1.0000      -0.547820       -14.9069
  17   1.0000      -0.538172       -14.6444
  18   1.0000      -0.537425       -14.6241
  19   1.0000      -0.537319       -14.6212
  20   1.0000      -0.399446       -10.8695
  21   1.0000      -0.365311        -9.9406
  22   1.0000      -0.336137        -9.1467
  23   0.0000      -0.006956        -0.1893
  24   0.0000       0.050630         1.3777
  25   0.0000       0.055335         1.5057
  26   0.0000       0.080186         2.1820
  27   0.0000       0.113215         3.0807

                 SPIN DOWN ORBITALS
  NO   OCC          E(Eh)            E(eV)
   0   1.0000    -328.838573     -8948.1525
   1   1.0000     -91.905586     -2500.8781
   2   1.0000     -40.868093     -1112.0774
   3   1.0000     -35.667355      -970.5581
   4   1.0000     -35.667160      -970.5528
   5   1.0000     -35.665193      -970.4992
   6   1.0000      -8.907477      -242.3848
   7   1.0000      -6.589022      -179.2964
   8   1.0000      -6.588111      -179.2716
   9   1.0000      -6.573300      -178.8686
  10   1.0000      -5.058628      -137.6523
  11   1.0000      -3.373114       -91.7871
  12   1.0000      -3.369009       -91.6754
  13   1.0000      -3.368216       -91.6538
  14   1.0000      -0.794998       -21.6330
  15   1.0000      -0.546110       -14.8604
  16   1.0000      -0.536184       -14.5903
  17   1.0000      -0.536034       -14.5862
  18   1.0000      -0.530452       -14.4343
  19   1.0000      -0.529223       -14.4009
  20   1.0000      -0.348587        -9.4855
  21   1.0000      -0.316289        -8.6067
  22   0.0000      -0.005714        -0.1555
  23   0.0000       0.019393         0.5277
  24   0.0000       0.055416         1.5079
  25   0.0000       0.081853         2.2273
  26   0.0000       0.082745         2.2516

E(0)                                       ...  -2036.523326517
E(0)                                       ...  -2036.523326517
E(CORR)                                    ...     -0.946810844
E(TOT)                                     ...  -2037.470137361
E(CCSD(T))                                 ...  -2037.508521348

MULLIKEN ATOMIC CHARGES AND SPIN DENSITIES
------------------------------------------
   0 Cu:    0.328528    0.025026
   1 S :   -0.328528    0.974974
Sum of atomic charges       :   -0.0000000

LOEWDIN ATOMIC CHARGES AND SPIN DENSITIES
-----------------------------------------
   0 Cu:   -0.331674    0.154197
   1 S :    0.331674    0.845803

  Mayer bond orders larger than 0.100000
B(  0-Cu,  1-S ) :   1.2301

FINAL SINGLE POINT ENERGY     -2037.551612756400

DIPOLE MOMENT
-------------
                                X             Y             Z
Electronic contribution:     -0.00000       0.00000      -5.31441
Nuclear contribution   :      0.00000       0.00000       3.54103
                        -----------------------------------------
Total Dipole Moment    :     -0.00000       0.00000      -1.77338
                        -----------------------------------------
Magnitude (a.u.)       :      1.77338
Magnitude (Debye)      :      4.50758

Rotational constants in cm-1:     0.000000     0.186806     0.186806
Rotational constants in MHz :     0.000000  5600.307820  5600.307820

                             ****ORCA TERMINATED NORMALLY****
TOTAL RUN TIME: 0 days 0 hours 4 minutes 21 seconds 892 msec
