                         Program Version 4.2.0 -  RELEASE  -
|  1> #
|  2> # 55_ZnH ccsd(t)/cbs
|  3> #
|  4> ! ccsd(t) extrapolate(3/4,def2) verytightscf
|  5>
|  6> *xyz 0 2
|  7>   Zn  0.00000000000000      0.00000000000000      0.19402109306576
|  8>   H   0.00000000000000      0.00000000000000      1.80597890693424
|  9> *
| 10>
| 11> %maxcore 5000
| 12> %pal
| 13> nprocs 24
| 14> end
| 15>
| 16>
| 17>                          ****END OF INPUT****
 Total Charge           Charge          ....    0
 Multiplicity           Mult            ....    2
 Number of Electrons    NEL             ....   31
E(0)                                       ...  -1778.338088930
E(0)                                       ...  -1778.338088930
E(CORR)                                    ...     -0.749409456
E(TOT)                                     ...  -1779.087498386
E(CCSD(T))                                 ...  -1779.103677960

CARTESIAN COORDINATES (ANGSTROEM)
---------------------------------
  Zn     0.000000    0.000000    0.194021
  H      0.000000    0.000000    1.805979

 Multiplicity           Mult            ....    2
 Number of Electrons    NEL             ....   31
 Basis Dimension        Dim             ....  130

ORBITAL ENERGIES
----------------
                 SPIN UP ORBITALS
  NO   OCC          E(Eh)            E(eV)
   0   1.0000    -353.331504     -9614.6390
   1   1.0000     -44.388349     -1207.8684
   2   1.0000     -38.952396     -1059.9486
   3   1.0000     -38.952396     -1059.9486
   4   1.0000     -38.950916     -1059.9083
   5   1.0000      -5.664921      -154.1503
   6   1.0000      -3.867927      -105.2516
   7   1.0000      -3.867927      -105.2516
   8   1.0000      -3.865976      -105.1986
   9   1.0000      -0.813373       -22.1330
  10   1.0000      -0.813373       -22.1330
  11   1.0000      -0.811911       -22.0932
  12   1.0000      -0.807232       -21.9659
  13   1.0000      -0.807232       -21.9659
  14   1.0000      -0.461336       -12.5536
  15   1.0000      -0.281493        -7.6598
  16   0.0000       0.033016         0.8984
  17   0.0000       0.033016         0.8984
  18   0.0000       0.087414         2.3786
  19   0.0000       0.105361         2.8670
  20   0.0000       0.173674         4.7259

                 SPIN DOWN ORBITALS
  NO   OCC          E(Eh)            E(eV)
   0   1.0000    -353.329963     -9614.5971
   1   1.0000     -44.387645     -1207.8492
   2   1.0000     -38.952988     -1059.9647
   3   1.0000     -38.952988     -1059.9647
   4   1.0000     -38.949846     -1059.8792
   5   1.0000      -5.661594      -154.0598
   6   1.0000      -3.867693      -105.2453
   7   1.0000      -3.867693      -105.2453
   8   1.0000      -3.864091      -105.1473
   9   1.0000      -0.813197       -22.1282
  10   1.0000      -0.813197       -22.1282
  11   1.0000      -0.807551       -21.9746
  12   1.0000      -0.807551       -21.9746
  13   1.0000      -0.806263       -21.9395
  14   1.0000      -0.403033       -10.9671
  15   0.0000       0.024579         0.6688
  16   0.0000       0.048811         1.3282
  17   0.0000       0.048811         1.3282
  18   0.0000       0.091295         2.4843
  19   0.0000       0.141209         3.8425

E(0)                                       ...  -1778.379260218
E(0)                                       ...  -1778.379260218
E(CORR)                                    ...     -0.789142322
E(TOT)                                     ...  -1779.168402540
E(CCSD(T))                                 ...  -1779.189720250

MULLIKEN ATOMIC CHARGES AND SPIN DENSITIES
------------------------------------------
   0 Zn:    0.166970    0.720706
   1 H :   -0.166970    0.279294
Sum of atomic charges       :   -0.0000000

LOEWDIN ATOMIC CHARGES AND SPIN DENSITIES
-----------------------------------------
   0 Zn:    0.187060    0.848937
   1 H :   -0.187060    0.151063

  Mayer bond orders larger than 0.100000
B(  0-Zn,  1-H ) :   0.7965

FINAL SINGLE POINT ENERGY     -1779.228628884146

DIPOLE MOMENT
-------------
                                X             Y             Z
Electronic contribution:      0.00000      -0.00000      -1.83487
Nuclear contribution   :      0.00000       0.00000       1.61237
                        -----------------------------------------
Total Dipole Moment    :      0.00000      -0.00000      -0.22250
                        -----------------------------------------
Magnitude (a.u.)       :      0.22250
Magnitude (Debye)      :      0.56554

Rotational constants in cm-1:     0.000000     6.535423     6.535423
Rotational constants in MHz :     0.000000 195927.048997 195927.048997

                             ****ORCA TERMINATED NORMALLY****
TOTAL RUN TIME: 0 days 0 hours 1 minutes 16 seconds 347 msec
