                         Program Version 4.2.0 -  RELEASE  -
|  1> #
|  2> # 56_ZnF ccsd(t)/cbs
|  3> #
|  4> ! ccsd(t) extrapolate(3/4,def2) verytightscf
|  5>
|  6> *xyz 0 2
|  7>   Zn  0.00000000000000      0.00000000000000      0.10305473518103
|  8>   F   0.00000000000000      0.00000000000000      1.89694526481897
|  9> *
| 10>
| 11> %maxcore 5000
| 12> %pal
| 13> nprocs 24
| 14> end
| 15>
| 16>
| 17>                          ****END OF INPUT****
 Total Charge           Charge          ....    0
 Multiplicity           Mult            ....    2
 Number of Electrons    NEL             ....   39
E(0)                                       ...  -1877.295897409
E(0)                                       ...  -1877.295897409
E(CORR)                                    ...     -0.980303738
E(TOT)                                     ...  -1878.276201148
E(CCSD(T))                                 ...  -1878.298773905

CARTESIAN COORDINATES (ANGSTROEM)
---------------------------------
  Zn     0.000000    0.000000    0.103055
  F      0.000000    0.000000    1.896945

 Multiplicity           Mult            ....    2
 Number of Electrons    NEL             ....   39
 Basis Dimension        Dim             ....  157

ORBITAL ENERGIES
----------------
                 SPIN UP ORBITALS
  NO   OCC          E(Eh)            E(eV)
   0   1.0000    -353.351698     -9615.1885
   1   1.0000     -44.405944     -1208.3472
   2   1.0000     -38.970591     -1060.4437
   3   1.0000     -38.970591     -1060.4437
   4   1.0000     -38.967712     -1060.3654
   5   1.0000     -26.188428      -712.6234
   6   1.0000      -5.686849      -154.7470
   7   1.0000      -3.891106      -105.8824
   8   1.0000      -3.891106      -105.8824
   9   1.0000      -3.886548      -105.7584
  10   1.0000      -1.462643       -39.8005
  11   1.0000      -0.836952       -22.7746
  12   1.0000      -0.836952       -22.7746
  13   1.0000      -0.836282       -22.7564
  14   1.0000      -0.834211       -22.7000
  15   1.0000      -0.834211       -22.7000
  16   1.0000      -0.578990       -15.7551
  17   1.0000      -0.545445       -14.8423
  18   1.0000      -0.545445       -14.8423
  19   1.0000      -0.331283        -9.0147
  20   0.0000       0.030902         0.8409
  21   0.0000       0.030902         0.8409
  22   0.0000       0.074028         2.0144
  23   0.0000       0.098905         2.6913
  24   0.0000       0.163250         4.4423

                 SPIN DOWN ORBITALS
  NO   OCC          E(Eh)            E(eV)
   0   1.0000    -353.349323     -9615.1239
   1   1.0000     -44.404769     -1208.3152
   2   1.0000     -38.971597     -1060.4711
   3   1.0000     -38.971597     -1060.4711
   4   1.0000     -38.967439     -1060.3579
   5   1.0000     -26.185017      -712.5305
   6   1.0000      -5.681568      -154.6033
   7   1.0000      -3.890650      -105.8700
   8   1.0000      -3.890650      -105.8700
   9   1.0000      -3.887239      -105.7771
  10   1.0000      -1.452007       -39.5111
  11   1.0000      -0.836552       -22.7637
  12   1.0000      -0.836552       -22.7637
  13   1.0000      -0.835392       -22.7322
  14   1.0000      -0.835392       -22.7322
  15   1.0000      -0.833362       -22.6769
  16   1.0000      -0.550767       -14.9871
  17   1.0000      -0.543775       -14.7969
  18   1.0000      -0.543775       -14.7969
  19   0.0000      -0.008866        -0.2413
  20   0.0000       0.055578         1.5124
  21   0.0000       0.055578         1.5124
  22   0.0000       0.084376         2.2960
  23   0.0000       0.138240         3.7617

E(0)                                       ...  -1877.344051580
E(0)                                       ...  -1877.344051580
E(CORR)                                    ...     -1.042704264
E(TOT)                                     ...  -1878.386755844
E(CCSD(T))                                 ...  -1878.416165798

MULLIKEN ATOMIC CHARGES AND SPIN DENSITIES
------------------------------------------
   0 Zn:    0.578599    0.947894
   1 F :   -0.578599    0.052106
Sum of atomic charges       :   -0.0000000

LOEWDIN ATOMIC CHARGES AND SPIN DENSITIES
-----------------------------------------
   0 Zn:    0.180250    0.932325
   1 F :   -0.180250    0.067675

  Mayer bond orders larger than 0.100000
B(  0-Zn,  1-F ) :   0.6859

FINAL SINGLE POINT ENERGY     -1878.474085654198

DIPOLE MOMENT
-------------
                                X             Y             Z
Electronic contribution:     -0.00000       0.00000      -1.93971
Nuclear contribution   :      0.00000       0.00000       0.74245
                        -----------------------------------------
Total Dipole Moment    :     -0.00000       0.00000      -1.19726
                        -----------------------------------------
Magnitude (a.u.)       :      1.19726
Magnitude (Debye)      :      3.04318

Rotational constants in cm-1:     0.000000     0.355862     0.355862
Rotational constants in MHz :     0.000000 10668.470416 10668.470416

                             ****ORCA TERMINATED NORMALLY****
TOTAL RUN TIME: 0 days 0 hours 2 minutes 53 seconds 344 msec
