                         Program Version 4.2.0 -  RELEASE  -
|  1> #
|  2> # 57_ZnCl ccsd(t)/cbs
|  3> #
|  4> ! ccsd(t) extrapolate(3/4,def2) verytightscf
|  5>
|  6> *xyz 0 2
|  7>   Zn  0.00000000000000      0.00000000000000     -0.08307444970280
|  8>   Cl  0.00000000000000      0.00000000000000      2.08307444970280
|  9> *
| 10>
| 11> %maxcore 5000
| 12> %pal
| 13> nprocs 24
| 14> end
| 15>
| 16>
| 17>                          ****END OF INPUT****
 Total Charge           Charge          ....    0
 Multiplicity           Mult            ....    2
 Number of Electrons    NEL             ....   47
E(0)                                       ...  -2237.356824228
E(0)                                       ...  -2237.356824228
E(CORR)                                    ...     -0.928666712
E(TOT)                                     ...  -2238.285490940
E(CCSD(T))                                 ...  -2238.309561468

CARTESIAN COORDINATES (ANGSTROEM)
---------------------------------
  Zn     0.000000    0.000000   -0.083074
  Cl     0.000000    0.000000    2.083074

 Multiplicity           Mult            ....    2
 Number of Electrons    NEL             ....   47
 Basis Dimension        Dim             ....  170

ORBITAL ENERGIES
----------------
                 SPIN UP ORBITALS
  NO   OCC          E(Eh)            E(eV)
   0   1.0000    -353.366980     -9615.6044
   1   1.0000    -104.790785     -2851.5022
   2   1.0000     -44.421810     -1208.7789
   3   1.0000     -38.985969     -1060.8622
   4   1.0000     -38.985969     -1060.8622
   5   1.0000     -38.984232     -1060.8149
   6   1.0000     -10.516600      -286.1712
   7   1.0000      -7.985320      -217.2916
   8   1.0000      -7.981992      -217.2011
   9   1.0000      -7.981992      -217.2011
  10   1.0000      -5.701133      -155.1357
  11   1.0000      -3.904277      -106.2408
  12   1.0000      -3.904277      -106.2408
  13   1.0000      -3.902012      -106.1791
  14   1.0000      -1.046193       -28.4684
  15   1.0000      -0.849330       -23.1114
  16   1.0000      -0.849330       -23.1114
  17   1.0000      -0.846289       -23.0287
  18   1.0000      -0.846289       -23.0287
  19   1.0000      -0.841987       -22.9116
  20   1.0000      -0.498821       -13.5736
  21   1.0000      -0.433598       -11.7988
  22   1.0000      -0.433598       -11.7988
  23   1.0000      -0.323213        -8.7951
  24   0.0000       0.030049         0.8177
  25   0.0000       0.030049         0.8177
  26   0.0000       0.076675         2.0864
  27   0.0000       0.097478         2.6525
  28   0.0000       0.154186         4.1956

                 SPIN DOWN ORBITALS
  NO   OCC          E(Eh)            E(eV)
   0   1.0000    -353.364698     -9615.5423
   1   1.0000    -104.789333     -2851.4627
   2   1.0000     -44.420642     -1208.7471
   3   1.0000     -38.986848     -1060.8861
   4   1.0000     -38.986848     -1060.8861
   5   1.0000     -38.983881     -1060.8053
   6   1.0000     -10.515057      -286.1293
   7   1.0000      -7.981345      -217.1834
   8   1.0000      -7.981345      -217.1834
   9   1.0000      -7.979611      -217.1362
  10   1.0000      -5.696026      -154.9968
  11   1.0000      -3.903913      -106.2309
  12   1.0000      -3.903913      -106.2309
  13   1.0000      -3.902002      -106.1789
  14   1.0000      -1.034783       -28.1579
  15   1.0000      -0.848983       -23.1020
  16   1.0000      -0.848983       -23.1020
  17   1.0000      -0.847055       -23.0495
  18   1.0000      -0.847055       -23.0495
  19   1.0000      -0.840050       -22.8589
  20   1.0000      -0.470165       -12.7938
  21   1.0000      -0.432071       -11.7572
  22   1.0000      -0.432071       -11.7572
  23   0.0000      -0.008093        -0.2202
  24   0.0000       0.054266         1.4767
  25   0.0000       0.054266         1.4767
  26   0.0000       0.087357         2.3771
  27   0.0000       0.131463         3.5773

E(0)                                       ...  -2237.411766020
E(0)                                       ...  -2237.411766020
E(CORR)                                    ...     -0.987552907
E(TOT)                                     ...  -2238.399318928
E(CCSD(T))                                 ...  -2238.430499006

MULLIKEN ATOMIC CHARGES AND SPIN DENSITIES
------------------------------------------
   0 Zn:    0.457242    0.902272
   1 Cl:   -0.457242    0.097728
Sum of atomic charges       :   -0.0000000

LOEWDIN ATOMIC CHARGES AND SPIN DENSITIES
-----------------------------------------
   0 Zn:   -0.088053    0.892909
   1 Cl:    0.088053    0.107091

  Mayer bond orders larger than 0.100000
B(  0-Zn,  1-Cl) :   0.8297

FINAL SINGLE POINT ENERGY     -2238.486952318471

DIPOLE MOMENT
-------------
                                X             Y             Z
Electronic contribution:     -0.00000       0.00000      -3.08446
Nuclear contribution   :      0.00000       0.00000       1.94334
                        -----------------------------------------
Total Dipole Moment    :     -0.00000       0.00000      -1.14113
                        -----------------------------------------
Magnitude (a.u.)       :      1.14113
Magnitude (Debye)      :      2.90052

Rotational constants in cm-1:     0.000000     0.156288     0.156288
Rotational constants in MHz :     0.000000  4685.390286  4685.390286

                             ****ORCA TERMINATED NORMALLY****
TOTAL RUN TIME: 0 days 0 hours 3 minutes 38 seconds 468 msec
