                         Program Version 4.2.0 -  RELEASE  -
|  1> #
|  2> # 58_ZnBr ccsd(t)/cbs
|  3> #
|  4> ! ccsd(t) extrapolate(3/4,def2) verytightscf
|  5>
|  6> *xyz 0 2
|  7>   Zn  0.00000000000000      0.00000000000000     -0.15390624723259
|  8>   Br  0.00000000000000      0.00000000000000      2.15390624723258
|  9> *
| 10>
| 11> %maxcore 5000
| 12> %pal
| 13> nprocs 24
| 14> end
| 15>
| 16>
| 17>                          ****END OF INPUT****
 Total Charge           Charge          ....    0
 Multiplicity           Mult            ....    2
 Number of Electrons    NEL             ....   65
E(0)                                       ...  -4350.267365122
E(0)                                       ...  -4350.267365122
E(CORR)                                    ...     -1.001726956
E(TOT)                                     ...  -4351.269092079
E(CCSD(T))                                 ...  -4351.294030757

CARTESIAN COORDINATES (ANGSTROEM)
---------------------------------
  Zn     0.000000    0.000000   -0.153906
  Br     0.000000    0.000000    2.153906

 Multiplicity           Mult            ....    2
 Number of Electrons    NEL             ....   65
 Basis Dimension        Dim             ....  189

ORBITAL ENERGIES
----------------
                 SPIN UP ORBITALS
  NO   OCC          E(Eh)            E(eV)
   0   1.0000    -489.988166    -13333.2558
   1   1.0000    -353.370151     -9615.6907
   2   1.0000     -65.128601     -1772.2393
   3   1.0000     -58.484115     -1591.4337
   4   1.0000     -58.482945     -1591.4018
   5   1.0000     -58.482945     -1591.4018
   6   1.0000     -44.425010     -1208.8660
   7   1.0000     -38.989041     -1060.9457
   8   1.0000     -38.989041     -1060.9457
   9   1.0000     -38.987588     -1060.9062
  10   1.0000      -9.801475      -266.7117
  11   1.0000      -7.411837      -201.6863
  12   1.0000      -7.407465      -201.5674
  13   1.0000      -7.407465      -201.5674
  14   1.0000      -5.703940      -155.2121
  15   1.0000      -3.906829      -106.3102
  16   1.0000      -3.906829      -106.3102
  17   1.0000      -3.904979      -106.2599
  18   1.0000      -3.152674       -85.7886
  19   1.0000      -3.151279       -85.7507
  20   1.0000      -3.151279       -85.7507
  21   1.0000      -3.147746       -85.6545
  22   1.0000      -3.147746       -85.6545
  23   1.0000      -0.978484       -26.6259
  24   1.0000      -0.851682       -23.1754
  25   1.0000      -0.851682       -23.1754
  26   1.0000      -0.848649       -23.0929
  27   1.0000      -0.848649       -23.0929
  28   1.0000      -0.842853       -22.9352
  29   1.0000      -0.474701       -12.9173
  30   1.0000      -0.401171       -10.9164
  31   1.0000      -0.401171       -10.9164
  32   1.0000      -0.318691        -8.6720
  33   0.0000       0.029164         0.7936
  34   0.0000       0.029164         0.7936
  35   0.0000       0.076463         2.0807
  36   0.0000       0.096097         2.6149
  37   0.0000       0.152075         4.1382

                 SPIN DOWN ORBITALS
  NO   OCC          E(Eh)            E(eV)
   0   1.0000    -489.987496    -13333.2376
   1   1.0000    -353.367914     -9615.6298
   2   1.0000     -65.128180     -1772.2279
   3   1.0000     -58.482748     -1591.3965
   4   1.0000     -58.482748     -1591.3965
   5   1.0000     -58.482375     -1591.3863
   6   1.0000     -44.423847     -1208.8343
   7   1.0000     -38.989879     -1060.9686
   8   1.0000     -38.989879     -1060.9686
   9   1.0000     -38.987259     -1060.8973
  10   1.0000      -9.800147      -266.6756
  11   1.0000      -7.407681      -201.5732
  12   1.0000      -7.407147      -201.5587
  13   1.0000      -7.407147      -201.5587
  14   1.0000      -5.698914      -155.0753
  15   1.0000      -3.906505      -106.3014
  16   1.0000      -3.906505      -106.3014
  17   1.0000      -3.904849      -106.2563
  18   1.0000      -3.151184       -85.7481
  19   1.0000      -3.150085       -85.7182
  20   1.0000      -3.150085       -85.7182
  21   1.0000      -3.147663       -85.6523
  22   1.0000      -3.147663       -85.6523
  23   1.0000      -0.966612       -26.3029
  24   1.0000      -0.851356       -23.1666
  25   1.0000      -0.851356       -23.1666
  26   1.0000      -0.849300       -23.1106
  27   1.0000      -0.849300       -23.1106
  28   1.0000      -0.840846       -22.8806
  29   1.0000      -0.443094       -12.0572
  30   1.0000      -0.399307       -10.8657
  31   1.0000      -0.399307       -10.8657
  32   0.0000      -0.009299        -0.2530
  33   0.0000       0.053218         1.4481
  34   0.0000       0.053218         1.4481
  35   0.0000       0.087154         2.3716
  36   0.0000       0.126658         3.4465

E(0)                                       ...  -4350.358371123
E(0)                                       ...  -4350.358371123
E(CORR)                                    ...     -1.337743890
E(TOT)                                     ...  -4351.696115013
E(CCSD(T))                                 ...  -4351.730535370

MULLIKEN ATOMIC CHARGES AND SPIN DENSITIES
------------------------------------------
   0 Zn:    0.397240    0.867700
   1 Br:   -0.397240    0.132300
Sum of atomic charges       :    0.0000000

LOEWDIN ATOMIC CHARGES AND SPIN DENSITIES
-----------------------------------------
   0 Zn:   -0.170189    0.873149
   1 Br:    0.170189    0.126851

  Mayer bond orders larger than 0.100000
B(  0-Zn,  1-Br) :   0.8866

FINAL SINGLE POINT ENERGY     -4351.998995124870

DIPOLE MOMENT
-------------
                                X             Y             Z
Electronic contribution:     -0.00000      -0.00000       2.16009
Nuclear contribution   :      0.00000       0.00000      -3.26305
                        -----------------------------------------
Total Dipole Moment    :     -0.00000      -0.00000      -1.10296
                        -----------------------------------------
Magnitude (a.u.)       :      1.10296
Magnitude (Debye)      :      2.80350

Rotational constants in cm-1:     0.000000     0.088026     0.088026
Rotational constants in MHz :     0.000000  2638.947188  2638.947188

                             ****ORCA TERMINATED NORMALLY****
TOTAL RUN TIME: 0 days 0 hours 8 minutes 35 seconds 693 msec
