                         Program Version 4.2.0 -  RELEASE  -
|  1> #
|  2> # 59_ZnO ccsd(t)/cbs
|  3> #
|  4> ! ccsd(t) extrapolate(3/4,def2) verytightscf
|  5>
|  6> *xyz 0 1
|  7>   Zn  0.00000000000000      0.00000000000000      0.14991809043900
|  8>   O   0.00000000000000      0.00000000000000      1.85008190956100
|  9> *
| 10>
| 11> %maxcore 5000
| 12> %pal
| 13> nprocs 24
| 14> end
| 15>
| 16>
| 17>                          ****END OF INPUT****
 Total Charge           Charge          ....    0
 Multiplicity           Mult            ....    1
 Number of Electrons    NEL             ....   38
E(0)                                       ...  -1852.551288381
E(0)                                       ...  -1852.551288381
E(CORR)                                    ...     -1.005790673
E(TOT)                                     ...  -1853.557079054
E(CCSD(T))                                 ...  -1853.593394408

CARTESIAN COORDINATES (ANGSTROEM)
---------------------------------
  Zn     0.000000    0.000000    0.149918
  O      0.000000    0.000000    1.850082

 Multiplicity           Mult            ....    1
 Number of Electrons    NEL             ....   38
 Basis Dimension        Dim             ....  157

ORBITAL ENERGIES
----------------

  NO   OCC          E(Eh)            E(eV)
   0   2.0000    -353.357307     -9615.3412
   1   2.0000     -44.415343     -1208.6029
   2   2.0000     -38.979843     -1060.6954
   3   2.0000     -38.979843     -1060.6954
   4   2.0000     -38.977056     -1060.6196
   5   2.0000     -20.487037      -557.4806
   6   2.0000      -5.692724      -154.9069
   7   2.0000      -3.896348      -106.0250
   8   2.0000      -3.895285      -105.9961
   9   2.0000      -3.895285      -105.9961
  10   2.0000      -1.146052       -31.1857
  11   2.0000      -0.843841       -22.9621
  12   2.0000      -0.843841       -22.9621
  13   2.0000      -0.838999       -22.8303
  14   2.0000      -0.838999       -22.8303
  15   2.0000      -0.820237       -22.3198
  16   2.0000      -0.394105       -10.7241
  17   2.0000      -0.394105       -10.7241
  18   2.0000      -0.368435       -10.0256
  19   0.0000      -0.046576        -1.2674
  20   0.0000       0.045919         1.2495
  21   0.0000       0.045919         1.2495
  22   0.0000       0.080974         2.2034
  23   0.0000       0.112406         3.0587

E(0)                                       ...  -1852.598665398
E(0)                                       ...  -1852.598665398
E(CORR)                                    ...     -1.061368721
E(TOT)                                     ...  -1853.660034120
E(CCSD(T))                                 ...  -1853.703520741

MULLIKEN ATOMIC CHARGES
-----------------------
   0 Zn:    0.584311
   1 O :   -0.584311
Sum of atomic charges:   -0.0000000

LOEWDIN ATOMIC CHARGES
----------------------
   0 Zn:    0.152007
   1 O :   -0.152007

  Mayer bond orders larger than 0.100000
B(  0-Zn,  1-O ) :   1.6327

FINAL SINGLE POINT ENERGY     -1853.756527330288

DIPOLE MOMENT
-------------
                                X             Y             Z
Electronic contribution:      0.00000      -0.00000      -3.63430
Nuclear contribution   :      0.00000       0.00000       1.70040
                        -----------------------------------------
Total Dipole Moment    :      0.00000      -0.00000      -1.93390
                        -----------------------------------------
Magnitude (a.u.)       :      1.93390
Magnitude (Debye)      :      4.91558

Rotational constants in cm-1:     0.000000     0.453722     0.453722
Rotational constants in MHz :     0.000000 13602.247054 13602.247054

                             ****ORCA TERMINATED NORMALLY****
TOTAL RUN TIME: 0 days 0 hours 1 minutes 8 seconds 781 msec
