                         Program Version 4.2.0 -  RELEASE  -
|  1> #
|  2> # 60_ZnS ccsd(t)/cbs
|  3> #
|  4> ! ccsd(t) extrapolate(3/4,def2) verytightscf
|  5>
|  6> *xyz 0 1
|  7>   Zn  0.00000000000000      0.00000000000000     -0.02757018403008
|  8>   S   0.00000000000000      0.00000000000000      2.02757018403008
|  9> *
| 10>
| 11> %maxcore 5000
| 12> %pal
| 13> nprocs 24
| 14> end
| 15>
| 16>
| 17>                          ****END OF INPUT****
 Total Charge           Charge          ....    0
 Multiplicity           Mult            ....    1
 Number of Electrons    NEL             ....   46
E(0)                                       ...  -2175.300814303
E(0)                                       ...  -2175.300814303
E(CORR)                                    ...     -0.928846176
E(TOT)                                     ...  -2176.229660480
E(CCSD(T))                                 ...  -2176.260558840

CARTESIAN COORDINATES (ANGSTROEM)
---------------------------------
  Zn     0.000000    0.000000   -0.027570
  S      0.000000    0.000000    2.027570

 Multiplicity           Mult            ....    1
 Number of Electrons    NEL             ....   46
 Basis Dimension        Dim             ....  170

ORBITAL ENERGIES
----------------

  NO   OCC          E(Eh)            E(eV)
   0   2.0000    -353.385764     -9616.1155
   1   2.0000     -91.897080     -2500.6467
   2   2.0000     -44.442870     -1209.3520
   3   2.0000     -39.007169     -1061.4390
   4   2.0000     -39.007169     -1061.4390
   5   2.0000     -39.005685     -1061.3986
   6   2.0000      -8.897650      -242.1174
   7   2.0000      -6.578845      -179.0195
   8   2.0000      -6.576676      -178.9604
   9   2.0000      -6.576676      -178.9604
  10   2.0000      -5.719654      -155.6397
  11   2.0000      -3.924779      -106.7987
  12   2.0000      -3.922132      -106.7266
  13   2.0000      -3.922132      -106.7266
  14   2.0000      -0.897891       -24.4329
  15   2.0000      -0.868780       -23.6407
  16   2.0000      -0.868780       -23.6407
  17   2.0000      -0.865008       -23.5381
  18   2.0000      -0.865008       -23.5381
  19   2.0000      -0.803795       -21.8724
  20   2.0000      -0.380538       -10.3550
  21   2.0000      -0.319884        -8.7045
  22   2.0000      -0.319884        -8.7045
  23   0.0000      -0.055773        -1.5177
  24   0.0000       0.042224         1.1490
  25   0.0000       0.042224         1.1490
  26   0.0000       0.078945         2.1482
  27   0.0000       0.110084         2.9955

E(0)                                       ...  -2175.354276610
E(0)                                       ...  -2175.354276610
E(CORR)                                    ...     -0.982743255
E(TOT)                                     ...  -2176.337019865
E(CCSD(T))                                 ...  -2176.375136707

MULLIKEN ATOMIC CHARGES
-----------------------
   0 Zn:    0.431051
   1 S :   -0.431051
Sum of atomic charges:   -0.0000000

LOEWDIN ATOMIC CHARGES
----------------------
   0 Zn:   -0.083140
   1 S :    0.083140

  Mayer bond orders larger than 0.100000
B(  0-Zn,  1-S ) :   1.7416

FINAL SINGLE POINT ENERGY     -2176.427771286094

DIPOLE MOMENT
-------------
                                X             Y             Z
Electronic contribution:     -0.00000       0.00000      -5.33866
Nuclear contribution   :      0.00000       0.00000       3.35914
                        -----------------------------------------
Total Dipole Moment    :     -0.00000       0.00000      -1.97952
                        -----------------------------------------
Magnitude (a.u.)       :      1.97952
Magnitude (Debye)      :      5.03154

Rotational constants in cm-1:     0.000000     0.185542     0.185542
Rotational constants in MHz :     0.000000  5562.415993  5562.415993

                             ****ORCA TERMINATED NORMALLY****
TOTAL RUN TIME: 0 days 0 hours 1 minutes 13 seconds 601 msec
