                         Program Version 4.2.0 -  RELEASE  -
|  1> #
|  2> # 61_Sc ccsd(t)/cbs
|  3> #
|  4> ! ccsd(t) extrapolate(3/4,def2) verytightscf
|  5>
|  6> *xyz 0 2
|  7> Sc 0.0 0.0 0.0
|  8> *
|  9>
| 10> %maxcore 5000
| 11> %pal
| 12> nprocs 24
| 13> end
| 14>
| 15>
| 16>                          ****END OF INPUT****
 Total Charge           Charge          ....    0
 Multiplicity           Mult            ....    2
 Number of Electrons    NEL             ....   21
E(0)                                       ...   -759.725040996
E(0)                                       ...   -759.725040996
E(CORR)                                    ...     -0.257927901
E(TOT)                                     ...   -759.982968896
E(CCSD(T))                                 ...   -759.990719090

CARTESIAN COORDINATES (ANGSTROEM)
---------------------------------
  Sc     0.000000    0.000000    0.000000

 Multiplicity           Mult            ....    2
 Number of Electrons    NEL             ....   21
 Basis Dimension        Dim             ....   93

ORBITAL ENERGIES
----------------
                 SPIN UP ORBITALS
  NO   OCC          E(Eh)            E(eV)
   0   1.0000    -165.899244     -4514.3479
   1   1.0000     -19.085723      -519.3489
   2   1.0000     -15.674917      -426.5362
   3   1.0000     -15.672772      -426.4778
   4   1.0000     -15.672772      -426.4778
   5   1.0000      -2.593346       -70.5685
   6   1.0000      -1.621073       -44.1117
   7   1.0000      -1.621073       -44.1116
   8   1.0000      -1.581935       -43.0466
   9   1.0000      -0.352960        -9.6045
  10   1.0000      -0.216080        -5.8798
  11   0.0000       0.020181         0.5492
  12   0.0000       0.020181         0.5492
  13   0.0000       0.020713         0.5636
  14   0.0000       0.077105         2.0981
  15   0.0000       0.084877         2.3096

                 SPIN DOWN ORBITALS
  NO   OCC          E(Eh)            E(eV)
   0   1.0000    -165.899380     -4514.3516
   1   1.0000     -19.073031      -519.0036
   2   1.0000     -15.672543      -426.4716
   3   1.0000     -15.654661      -425.9850
   4   1.0000     -15.654661      -425.9850
   5   1.0000      -2.538812       -69.0846
   6   1.0000      -1.575261       -42.8650
   7   1.0000      -1.521126       -41.3919
   8   1.0000      -1.521126       -41.3919
   9   1.0000      -0.204527        -5.5655
  10   0.0000       0.017393         0.4733
  11   0.0000       0.023539         0.6405
  12   0.0000       0.023539         0.6405
  13   0.0000       0.078757         2.1431
  14   0.0000       0.088353         2.4042

E(0)                                       ...   -759.740132441
E(0)                                       ...   -759.740132441
E(CORR)                                    ...     -0.302005057
E(TOT)                                     ...   -760.042137498
E(CCSD(T))                                 ...   -760.052562298

MULLIKEN ATOMIC CHARGES AND SPIN DENSITIES
------------------------------------------
   0 Sc:   -0.000000    1.000000
Sum of atomic charges       :   -0.0000000

LOEWDIN ATOMIC CHARGES AND SPIN DENSITIES
-----------------------------------------
   0 Sc:   -0.000000    1.000000

FINAL SINGLE POINT ENERGY      -760.089271884492

DIPOLE MOMENT
-------------
                                X             Y             Z
Electronic contribution:      0.00000       0.00000       0.00000
Nuclear contribution   :      0.00000       0.00000       0.00000
                        -----------------------------------------
Total Dipole Moment    :      0.00000       0.00000       0.00000
                        -----------------------------------------
Magnitude (a.u.)       :      0.00000
Magnitude (Debye)      :      0.00000

Rotational constants in cm-1:     0.000000     0.000000     0.000000
Rotational constants in MHz :     0.000000     0.000000     0.000000

                             ****ORCA TERMINATED NORMALLY****
TOTAL RUN TIME: 0 days 0 hours 0 minutes 32 seconds 19 msec
