                         Program Version 4.2.0 -  RELEASE  -
|  1> #
|  2> # 62_Ti ccsd(t)/cbs
|  3> #
|  4> ! ccsd(t) extrapolate(3/4,def2) verytightscf
|  5>
|  6> *xyz 0 3
|  7> Ti 0.0 0.0 0.0
|  8> *
|  9>
| 10> %maxcore 5000
| 11> %pal
| 12> nprocs 24
| 13> end
| 14>
| 15>
| 16>                          ****END OF INPUT****
 Total Charge           Charge          ....    0
 Multiplicity           Mult            ....    3
 Number of Electrons    NEL             ....   22
E(0)                                       ...   -848.385569062
E(0)                                       ...   -848.385569062
E(CORR)                                    ...     -0.319908390
E(TOT)                                     ...   -848.705477452
E(CCSD(T))                                 ...   -848.716698478

CARTESIAN COORDINATES (ANGSTROEM)
---------------------------------
  Ti     0.000000    0.000000    0.000000

 Multiplicity           Mult            ....    3
 Number of Electrons    NEL             ....   22
 Basis Dimension        Dim             ....   93

ORBITAL ENERGIES
----------------
                 SPIN UP ORBITALS
  NO   OCC          E(Eh)            E(eV)
   0   1.0000    -183.276065     -4987.1953
   1   1.0000     -21.442322      -583.4753
   2   1.0000     -17.811373      -484.6721
   3   1.0000     -17.811373      -484.6721
   4   1.0000     -17.809634      -484.6248
   5   1.0000      -2.938512       -79.9610
   6   1.0000      -1.905776       -51.8588
   7   1.0000      -1.860706       -50.6324
   8   1.0000      -1.860706       -50.6324
   9   1.0000      -0.436896       -11.8886
  10   1.0000      -0.436896       -11.8886
  11   1.0000      -0.232438        -6.3249
  12   0.0000       0.021413         0.5827
  13   0.0000       0.021413         0.5827
  14   0.0000       0.021950         0.5973
  15   0.0000       0.072004         1.9593
  16   0.0000       0.094500         2.5715

                 SPIN DOWN ORBITALS
  NO   OCC          E(Eh)            E(eV)
   0   1.0000    -183.275977     -4987.1929
   1   1.0000     -21.409308      -582.5769
   2   1.0000     -17.784811      -483.9493
   3   1.0000     -17.784811      -483.9493
   4   1.0000     -17.762704      -483.3477
   5   1.0000      -2.811981       -76.5179
   6   1.0000      -1.739278       -47.3282
   7   1.0000      -1.739278       -47.3282
   8   1.0000      -1.677659       -45.6514
   9   1.0000      -0.210590        -5.7304
  10   0.0000       0.021739         0.5915
  11   0.0000       0.021739         0.5915
  12   0.0000       0.025999         0.7075
  13   0.0000       0.076280         2.0757
  14   0.0000       0.105534         2.8717

E(0)                                       ...   -848.401745415
E(0)                                       ...   -848.401745415
E(CORR)                                    ...     -0.344955428
E(TOT)                                     ...   -848.746700843
E(CCSD(T))                                 ...   -848.759448937

MULLIKEN ATOMIC CHARGES AND SPIN DENSITIES
------------------------------------------
   0 Ti:   -0.000000    2.000000
Sum of atomic charges       :   -0.0000000

LOEWDIN ATOMIC CHARGES AND SPIN DENSITIES
-----------------------------------------
   0 Ti:   -0.000000    2.000000

FINAL SINGLE POINT ENERGY      -848.781361554557

DIPOLE MOMENT
-------------
                                X             Y             Z
Electronic contribution:     -0.00000      -0.00000      -0.00000
Nuclear contribution   :      0.00000       0.00000       0.00000
                        -----------------------------------------
Total Dipole Moment    :     -0.00000      -0.00000      -0.00000
                        -----------------------------------------
Magnitude (a.u.)       :      0.00000
Magnitude (Debye)      :      0.00000

Rotational constants in cm-1:     0.000000     0.000000     0.000000
Rotational constants in MHz :     0.000000     0.000000     0.000000

                             ****ORCA TERMINATED NORMALLY****
TOTAL RUN TIME: 0 days 0 hours 0 minutes 37 seconds 127 msec
