                         Program Version 4.2.0 -  RELEASE  -
|  1> #
|  2> # 63_V ccsd(t)/cbs
|  3> #
|  4> ! ccsd(t) extrapolate(3/4,def2) verytightscf veryslowconv
|  5>
|  6> *xyz 0 4
|  7> V 0.0 0.0 0.0
|  8> *
|  9>
| 10> %maxcore 5000
| 11>
| 12> %scf
| 13> MaxIter 1500
| 14> DIISMaxEq 40
| 15> directresetfreq 1
| 16> Shift Shift 0.1 ErrOff 0.1 end
| 17> end
| 18>
| 19> %pal
| 20> nprocs 24
| 21> end
| 22>
| 23>
| 24>                          ****END OF INPUT****
 Total Charge           Charge          ....    0
 Multiplicity           Mult            ....    4
 Number of Electrons    NEL             ....   23
E(0)                                       ...   -942.836469559
E(0)                                       ...   -942.836469559
E(CORR)                                    ...     -0.373309361
E(TOT)                                     ...   -943.209778920
E(CCSD(T))                                 ...   -943.223246874

CARTESIAN COORDINATES (ANGSTROEM)
---------------------------------
  V      0.000000    0.000000    0.000000

 Multiplicity           Mult            ....    4
 Number of Electrons    NEL             ....   23
 Basis Dimension        Dim             ....   93

ORBITAL ENERGIES
----------------
                 SPIN UP ORBITALS
  NO   OCC          E(Eh)            E(eV)
   0   1.0000    -201.321734     -5478.2429
   1   1.0000     -23.698322      -644.8641
   2   1.0000     -19.853242      -540.2342
   3   1.0000     -19.851666      -540.1913
   4   1.0000     -19.851665      -540.1913
   5   1.0000      -3.114164       -84.7407
   6   1.0000      -2.014471       -54.8165
   7   1.0000      -2.014431       -54.8155
   8   1.0000      -1.974406       -53.7263
   9   1.0000      -0.349917        -9.5217
  10   1.0000      -0.349864        -9.5203
  11   1.0000      -0.307578        -8.3696
  12   1.0000      -0.307578        -8.3696
  13   0.0000       0.001030         0.0280
  14   0.0000       0.043219         1.1761
  15   0.0000       0.043389         1.1807
  16   0.0000       0.043389         1.1807
  17   0.0000       0.107146         2.9156

                 SPIN DOWN ORBITALS
  NO   OCC          E(Eh)            E(eV)
   0   1.0000    -201.324058     -5478.3061
   1   1.0000     -23.635003      -643.1411
   2   1.0000     -19.800240      -538.7919
   3   1.0000     -19.779524      -538.2282
   4   1.0000     -19.779501      -538.2276
   5   1.0000      -2.872711       -78.1704
   6   1.0000      -1.733853       -47.1805
   7   1.0000      -1.674707       -45.5711
   8   1.0000      -1.674638       -45.5692
   9   1.0000      -0.180678        -4.9165
  10   0.0000       0.022494         0.6121
  11   0.0000       0.027035         0.7357
  12   0.0000       0.027044         0.7359
  13   0.0000       0.093932         2.5560
  14   0.0000       0.130498         3.5510

E(0)                                       ...   -942.854292502
E(0)                                       ...   -942.854292502
E(CORR)                                    ...     -0.395041984
E(TOT)                                     ...   -943.249334485
E(CCSD(T))                                 ...   -943.264364667

MULLIKEN ATOMIC CHARGES AND SPIN DENSITIES
------------------------------------------
   0 V :   -0.000000    3.000000
Sum of atomic charges       :   -0.0000000

LOEWDIN ATOMIC CHARGES AND SPIN DENSITIES
-----------------------------------------
   0 V :   -0.000000    3.000000

FINAL SINGLE POINT ENERGY      -943.284075006743

DIPOLE MOMENT
-------------
                                X             Y             Z
Electronic contribution:     -0.00000      -0.00000       0.00000
Nuclear contribution   :      0.00000       0.00000       0.00000
                        -----------------------------------------
Total Dipole Moment    :     -0.00000      -0.00000       0.00000
                        -----------------------------------------
Magnitude (a.u.)       :      0.00000
Magnitude (Debye)      :      0.00000

Rotational constants in cm-1:     0.000000     0.000000     0.000000
Rotational constants in MHz :     0.000000     0.000000     0.000000

                             ****ORCA TERMINATED NORMALLY****
TOTAL RUN TIME: 0 days 0 hours 1 minutes 49 seconds 117 msec
