                         Program Version 4.2.0 -  RELEASE  -
|  1> #
|  2> # 64_Cr ccsd(t)/cbs
|  3> #
|  4> ! ccsd(t) extrapolate(3/4,def2) verytightscf
|  5>
|  6> *xyz 0 7
|  7> Cr 0.0 0.0 0.0
|  8> *
|  9>
| 10> %maxcore 5000
| 11> %pal
| 12> nprocs 24
| 13> end
| 14>
| 15>
| 16>                          ****END OF INPUT****
 Total Charge           Charge          ....    0
 Multiplicity           Mult            ....    7
 Number of Electrons    NEL             ....   24
E(0)                                       ...  -1043.334611154
E(0)                                       ...  -1043.334611154
E(CORR)                                    ...     -0.407418615
E(TOT)                                     ...  -1043.742029769
E(CCSD(T))                                 ...  -1043.752290636

CARTESIAN COORDINATES (ANGSTROEM)
---------------------------------
  Cr     0.000000    0.000000    0.000000

 Multiplicity           Mult            ....    7
 Number of Electrons    NEL             ....   24
 Basis Dimension        Dim             ....   93

ORBITAL ENERGIES
----------------
                 SPIN UP ORBITALS
  NO   OCC          E(Eh)            E(eV)
   0   1.0000    -220.387690     -5997.0539
   1   1.0000     -26.259338      -714.5529
   2   1.0000     -22.188716      -603.7857
   3   1.0000     -22.188716      -603.7857
   4   1.0000     -22.188716      -603.7857
   5   1.0000      -3.458540       -94.1117
   6   1.0000      -2.261491       -61.5383
   7   1.0000      -2.261491       -61.5383
   8   1.0000      -2.261491       -61.5383
   9   1.0000      -0.373398       -10.1607
  10   1.0000      -0.373398       -10.1607
  11   1.0000      -0.373398       -10.1607
  12   1.0000      -0.373398       -10.1607
  13   1.0000      -0.373398       -10.1607
  14   1.0000      -0.222187        -6.0460
  15   0.0000       0.027279         0.7423
  16   0.0000       0.027279         0.7423
  17   0.0000       0.027279         0.7423
  18   0.0000       0.088358         2.4043
  19   0.0000       0.131706         3.5839

                 SPIN DOWN ORBITALS
  NO   OCC          E(Eh)            E(eV)
   0   1.0000    -220.386049     -5997.0093
   1   1.0000     -26.158605      -711.8118
   2   1.0000     -22.089727      -601.0920
   3   1.0000     -22.089727      -601.0920
   4   1.0000     -22.089727      -601.0920
   5   1.0000      -3.111161       -84.6590
   6   1.0000      -1.839780       -50.0630
   7   1.0000      -1.839780       -50.0630
   8   1.0000      -1.839780       -50.0630
   9   0.0000       0.023035         0.6268
  10   0.0000       0.050763         1.3813
  11   0.0000       0.050763         1.3813
  12   0.0000       0.050763         1.3813
  13   0.0000       0.141339         3.8460

E(0)                                       ...  -1043.355847875
E(0)                                       ...  -1043.355847875
E(CORR)                                    ...     -0.434728181
E(TOT)                                     ...  -1043.790576056
E(CCSD(T))                                 ...  -1043.803186936

MULLIKEN ATOMIC CHARGES AND SPIN DENSITIES
------------------------------------------
   0 Cr:   -0.000000    6.000000
Sum of atomic charges       :   -0.0000000

LOEWDIN ATOMIC CHARGES AND SPIN DENSITIES
-----------------------------------------
   0 Cr:   -0.000000    6.000000

FINAL SINGLE POINT ENERGY     -1043.828082096097

DIPOLE MOMENT
-------------
                                X             Y             Z
Electronic contribution:     -0.00000      -0.00000       0.00000
Nuclear contribution   :      0.00000       0.00000       0.00000
                        -----------------------------------------
Total Dipole Moment    :     -0.00000      -0.00000       0.00000
                        -----------------------------------------
Magnitude (a.u.)       :      0.00000
Magnitude (Debye)      :      0.00000

Rotational constants in cm-1:     0.000000     0.000000     0.000000
Rotational constants in MHz :     0.000000     0.000000     0.000000

                             ****ORCA TERMINATED NORMALLY****
TOTAL RUN TIME: 0 days 0 hours 0 minutes 23 seconds 820 msec
