                         Program Version 4.2.0 -  RELEASE  -
|  1> #
|  2> # 65_Mn ccsd(t)/cbs
|  3> #
|  4> ! ccsd(t) extrapolate(3/4,def2) verytightscf slowconv
|  5>
|  6> *xyz 0 6
|  7> Mn 0.0 0.0 0.0
|  8> *
|  9>
| 10> %maxcore 5000
| 11>
| 12> %scf
| 13> MaxIter 1500
| 14> DIISMaxEq 15
| 15> directresetfreq 1
| 16> end
| 17>
| 18> %pal
| 19> nprocs 24
| 20> end
| 21>
| 22>
| 23>                          ****END OF INPUT****
 Total Charge           Charge          ....    0
 Multiplicity           Mult            ....    6
 Number of Electrons    NEL             ....   25
E(0)                                       ...  -1149.730138564
E(0)                                       ...  -1149.730138564
E(CORR)                                    ...     -0.482291430
E(TOT)                                     ...  -1150.212429995
E(CCSD(T))                                 ...  -1150.226398362

CARTESIAN COORDINATES (ANGSTROEM)
---------------------------------
  Mn     0.000000    0.000000    0.000000

 Multiplicity           Mult            ....    6
 Number of Electrons    NEL             ....   25
 Basis Dimension        Dim             ....  100

ORBITAL ENERGIES
----------------
                 SPIN UP ORBITALS
  NO   OCC          E(Eh)            E(eV)
   0   1.0000    -240.361906     -6540.5800
   1   1.0000     -28.963361      -788.1331
   2   1.0000     -24.686004      -671.7403
   3   1.0000     -24.663434      -671.1262
   4   1.0000     -24.658422      -670.9898
   5   1.0000      -3.783752      -102.9611
   6   1.0000      -2.533448       -68.9386
   7   1.0000      -2.477740       -67.4227
   8   1.0000      -2.465600       -67.0924
   9   1.0000      -0.447447       -12.1757
  10   1.0000      -0.442179       -12.0323
  11   1.0000      -0.437604       -11.9078
  12   1.0000      -0.416080       -11.3221
  13   1.0000      -0.371749       -10.1158
  14   1.0000      -0.226499        -6.1634
  15   0.0000       0.026948         0.7333
  16   0.0000       0.031226         0.8497
  17   0.0000       0.031983         0.8703
  18   0.0000       0.092592         2.5195
  19   0.0000       0.136290         3.7087

                 SPIN DOWN ORBITALS
  NO   OCC          E(Eh)            E(eV)
   0   1.0000    -240.359349     -6540.5104
   1   1.0000     -28.863833      -785.4248
   2   1.0000     -24.572047      -668.6394
   3   1.0000     -24.572038      -668.6391
   4   1.0000     -24.572010      -668.6384
   5   1.0000      -3.467571       -94.3574
   6   1.0000      -2.133057       -58.0434
   7   1.0000      -2.123934       -57.7952
   8   1.0000      -2.082351       -56.6637
   9   1.0000      -0.227661        -6.1950
  10   0.0000       0.019388         0.5276
  11   0.0000       0.051690         1.4066
  12   0.0000       0.052331         1.4240
  13   0.0000       0.052515         1.4290
  14   0.0000       0.140035         3.8105

E(0)                                       ...  -1149.752392118
E(0)                                       ...  -1149.752392118
E(CORR)                                    ...     -0.499267389
E(TOT)                                     ...  -1150.251659506
E(CCSD(T))                                 ...  -1150.268635507

MULLIKEN ATOMIC CHARGES AND SPIN DENSITIES
------------------------------------------
   0 Mn:   -0.000000    5.000000
Sum of atomic charges       :   -0.0000000

LOEWDIN ATOMIC CHARGES AND SPIN DENSITIES
-----------------------------------------
   0 Mn:   -0.000000    5.000000

FINAL SINGLE POINT ENERGY     -1150.286503332826

DIPOLE MOMENT
-------------
                                X             Y             Z
Electronic contribution:     -0.00000       0.00000      -0.00000
Nuclear contribution   :      0.00000       0.00000       0.00000
                        -----------------------------------------
Total Dipole Moment    :     -0.00000       0.00000      -0.00000
                        -----------------------------------------
Magnitude (a.u.)       :      0.00000
Magnitude (Debye)      :      0.00000

Rotational constants in cm-1:     0.000000     0.000000     0.000000
Rotational constants in MHz :     0.000000     0.000000     0.000000

                             ****ORCA TERMINATED NORMALLY****
TOTAL RUN TIME: 0 days 0 hours 1 minutes 14 seconds 593 msec
