                         Program Version 4.2.0 -  RELEASE  -
|  1> #
|  2> # 66_Fe ccsd(t)/cbs
|  3> #
|  4> ! ccsd(t) extrapolate(3/4,def2) verytightscf
|  5>
|  6> *xyz 0 5
|  7> Fe 0.0 0.0 0.0
|  8> *
|  9>
| 10> %maxcore 5000
| 11> %pal
| 12> nprocs 24
| 13> end
| 14>
| 15>
| 16>                          ****END OF INPUT****
 Total Charge           Charge          ....    0
 Multiplicity           Mult            ....    5
 Number of Electrons    NEL             ....   26
E(0)                                       ...  -1262.347841084
E(0)                                       ...  -1262.347841084
E(CORR)                                    ...     -0.546152659
E(TOT)                                     ...  -1262.893993743
E(CCSD(T))                                 ...  -1262.911372351

CARTESIAN COORDINATES (ANGSTROEM)
---------------------------------
  Fe     0.000000    0.000000    0.000000

 Multiplicity           Mult            ....    5
 Number of Electrons    NEL             ....   26
 Basis Dimension        Dim             ....  100

ORBITAL ENERGIES
----------------
                 SPIN UP ORBITALS
  NO   OCC          E(Eh)            E(eV)
   0   1.0000    -261.181310     -7107.1048
   1   1.0000     -31.761477      -864.2737
   2   1.0000     -27.252645      -741.5822
   3   1.0000     -27.252645      -741.5822
   4   1.0000     -27.222329      -740.7572
   5   1.0000      -4.090809      -111.3166
   6   1.0000      -2.726596       -74.1944
   7   1.0000      -2.726596       -74.1944
   8   1.0000      -2.656205       -72.2790
   9   1.0000      -0.488143       -13.2830
  10   1.0000      -0.488143       -13.2830
  11   1.0000      -0.451573       -12.2879
  12   1.0000      -0.412470       -11.2239
  13   1.0000      -0.412470       -11.2239
  14   1.0000      -0.229442        -6.2434
  15   0.0000       0.031159         0.8479
  16   0.0000       0.031159         0.8479
  17   0.0000       0.035049         0.9537
  18   0.0000       0.100443         2.7332
  19   0.0000       0.147829         4.0226

                 SPIN DOWN ORBITALS
  NO   OCC          E(Eh)            E(eV)
   0   1.0000    -261.178452     -7107.0270
   1   1.0000     -31.674815      -861.9155
   2   1.0000     -27.159059      -739.0356
   3   1.0000     -27.158299      -739.0149
   4   1.0000     -27.158299      -739.0149
   5   1.0000      -3.832789      -104.2955
   6   1.0000      -2.432165       -66.1826
   7   1.0000      -2.379059       -64.7375
   8   1.0000      -2.379059       -64.7375
   9   1.0000      -0.306086        -8.3290
  10   1.0000      -0.306086        -8.3290
  11   0.0000       0.018130         0.4934
  12   0.0000       0.053949         1.4680
  13   0.0000       0.053949         1.4680
  14   0.0000       0.054768         1.4903
  15   0.0000       0.145402         3.9566

E(0)                                       ...  -1262.373173476
E(0)                                       ...  -1262.373173476
E(CORR)                                    ...     -0.565638228
E(TOT)                                     ...  -1262.938811704
E(CCSD(T))                                 ...  -1262.959919673

MULLIKEN ATOMIC CHARGES AND SPIN DENSITIES
------------------------------------------
   0 Fe:   -0.000000    4.000000
Sum of atomic charges       :   -0.0000000

LOEWDIN ATOMIC CHARGES AND SPIN DENSITIES
-----------------------------------------
   0 Fe:   -0.000000    4.000000

FINAL SINGLE POINT ENERGY     -1262.980605155869

DIPOLE MOMENT
-------------
                                X             Y             Z
Electronic contribution:      0.00000       0.00000      -0.00000
Nuclear contribution   :      0.00000       0.00000       0.00000
                        -----------------------------------------
Total Dipole Moment    :      0.00000       0.00000      -0.00000
                        -----------------------------------------
Magnitude (a.u.)       :      0.00000
Magnitude (Debye)      :      0.00000

Rotational constants in cm-1:     0.000000     0.000000     0.000000
Rotational constants in MHz :     0.000000     0.000000     0.000000

                             ****ORCA TERMINATED NORMALLY****
TOTAL RUN TIME: 0 days 0 hours 0 minutes 47 seconds 50 msec
