                         Program Version 4.2.0 -  RELEASE  -
|  1> #
|  2> # 67_Co ccsd(t)/cbs
|  3> #
|  4> ! ccsd(t) extrapolate(3/4,def2) verytightscf
|  5>
|  6> *xyz 0 4
|  7> Co 0.0 0.0 0.0
|  8> *
|  9>
| 10> %maxcore 5000
| 11> %pal
| 12> nprocs 24
| 13> end
| 14>
| 15>
| 16>                          ****END OF INPUT****
 Total Charge           Charge          ....    0
 Multiplicity           Mult            ....    4
 Number of Electrons    NEL             ....   27
E(0)                                       ...  -1381.337719239
E(0)                                       ...  -1381.337719239
E(CORR)                                    ...     -0.605236873
E(TOT)                                     ...  -1381.942956112
E(CCSD(T))                                 ...  -1381.960590547

CARTESIAN COORDINATES (ANGSTROEM)
---------------------------------
  Co     0.000000    0.000000    0.000000

 Multiplicity           Mult            ....    4
 Number of Electrons    NEL             ....   27
 Basis Dimension        Dim             ....  100

ORBITAL ENERGIES
----------------
                 SPIN UP ORBITALS
  NO   OCC          E(Eh)            E(eV)
   0   1.0000    -282.856909     -7696.9278
   1   1.0000     -34.665986      -943.3094
   2   1.0000     -29.920843      -814.1875
   3   1.0000     -29.920843      -814.1875
   4   1.0000     -29.920843      -814.1875
   5   1.0000      -4.393097      -119.5422
   6   1.0000      -2.907473       -79.1164
   7   1.0000      -2.907473       -79.1164
   8   1.0000      -2.907473       -79.1164
   9   1.0000      -0.498931       -13.5766
  10   1.0000      -0.498931       -13.5766
  11   1.0000      -0.446204       -12.1418
  12   1.0000      -0.446204       -12.1418
  13   1.0000      -0.446204       -12.1418
  14   1.0000      -0.232390        -6.3236
  15   0.0000       0.035499         0.9660
  16   0.0000       0.035499         0.9660
  17   0.0000       0.035499         0.9660
  18   0.0000       0.107645         2.9292
  19   0.0000       0.164440         4.4746

                 SPIN DOWN ORBITALS
  NO   OCC          E(Eh)            E(eV)
   0   1.0000    -282.854148     -7696.8527
   1   1.0000     -34.601400      -941.5520
   2   1.0000     -29.859051      -812.5061
   3   1.0000     -29.859051      -812.5061
   4   1.0000     -29.859051      -812.5061
   5   1.0000      -4.210364      -114.5698
   6   1.0000      -2.692932       -73.2784
   7   1.0000      -2.692932       -73.2784
   8   1.0000      -2.692932       -73.2784
   9   1.0000      -0.379349       -10.3226
  10   1.0000      -0.379349       -10.3226
  11   1.0000      -0.379349       -10.3226
  12   0.0000       0.017288         0.4704
  13   0.0000       0.058044         1.5795
  14   0.0000       0.058044         1.5795
  15   0.0000       0.058044         1.5795
  16   0.0000       0.150679         4.1002

E(0)                                       ...  -1381.366210216
E(0)                                       ...  -1381.366210216
E(CORR)                                    ...     -0.627658481
E(TOT)                                     ...  -1381.993868697
E(CCSD(T))                                 ...  -1382.016035757

MULLIKEN ATOMIC CHARGES AND SPIN DENSITIES
------------------------------------------
   0 Co:   -0.000000    3.000000
Sum of atomic charges       :   -0.0000000

LOEWDIN ATOMIC CHARGES AND SPIN DENSITIES
-----------------------------------------
   0 Co:   -0.000000    3.000000

FINAL SINGLE POINT ENERGY     -1382.039926149661

DIPOLE MOMENT
-------------
                                X             Y             Z
Electronic contribution:      0.00000      -0.00000       0.00000
Nuclear contribution   :      0.00000       0.00000       0.00000
                        -----------------------------------------
Total Dipole Moment    :      0.00000      -0.00000       0.00000
                        -----------------------------------------
Magnitude (a.u.)       :      0.00000
Magnitude (Debye)      :      0.00000

Rotational constants in cm-1:     0.000000     0.000000     0.000000
Rotational constants in MHz :     0.000000     0.000000     0.000000

                             ****ORCA TERMINATED NORMALLY****
TOTAL RUN TIME: 0 days 0 hours 0 minutes 33 seconds 579 msec
