                         Program Version 4.2.0 -  RELEASE  -
|  1> #
|  2> # 68_Ni ccsd(t)/cbs
|  3> #
|  4> ! ccsd(t) extrapolate(3/4,def2) verytightscf nrscf kdiis
|  5>
|  6> *xyz 0 3
|  7> Ni 0.0 0.0 0.0
|  8> *
|  9>
| 10> %maxcore 5000
| 11>
| 12> %pal
| 13> nprocs 24
| 14> end
| 15>
| 16>
| 17>                          ****END OF INPUT****
 Total Charge           Charge          ....    0
 Multiplicity           Mult            ....    3
 Number of Electrons    NEL             ....   28
E(0)                                       ...  -1506.797373758
E(0)                                       ...  -1506.797373758
E(CORR)                                    ...     -0.673837004
E(TOT)                                     ...  -1507.471210762
E(CCSD(T))                                 ...  -1507.490947983

CARTESIAN COORDINATES (ANGSTROEM)
---------------------------------
  Ni     0.000000    0.000000    0.000000

 Multiplicity           Mult            ....    3
 Number of Electrons    NEL             ....   28
 Basis Dimension        Dim             ....  100

ORBITAL ENERGIES
----------------
                 SPIN UP ORBITALS
  NO   OCC          E(Eh)            E(eV)
   0   1.0000    -305.399234     -8310.3356
   1   1.0000     -37.690151     -1025.6011
   2   1.0000     -32.729711      -890.6207
   3   1.0000     -32.729186      -890.6064
   4   1.0000     -32.692933      -889.6199
   5   1.0000      -4.705480      -128.0426
   6   1.0000      -3.145104       -85.5826
   7   1.0000      -3.143959       -85.5515
   8   1.0000      -3.065886       -83.4270
   9   1.0000      -0.549067       -14.9409
  10   1.0000      -0.492330       -13.3970
  11   1.0000      -0.463251       -12.6057
  12   1.0000      -0.462818       -12.5939
  13   1.0000      -0.452451       -12.3118
  14   1.0000      -0.236268        -6.4292
  15   0.0000       0.036451         0.9919
  16   0.0000       0.036505         0.9933
  17   0.0000       0.040010         1.0887
  18   0.0000       0.114491         3.1155
  19   0.0000       0.170237         4.6324

                 SPIN DOWN ORBITALS
  NO   OCC          E(Eh)            E(eV)
   0   1.0000    -305.396772     -8310.2687
   1   1.0000     -37.653566     -1024.6056
   2   1.0000     -32.684565      -889.3922
   3   1.0000     -32.682656      -889.3403
   4   1.0000     -32.682633      -889.3396
   5   1.0000      -4.605591      -125.3245
   6   1.0000      -3.041615       -82.7666
   7   1.0000      -2.986426       -81.2648
   8   1.0000      -2.985608       -81.2425
   9   1.0000      -0.476402       -12.9636
  10   1.0000      -0.420248       -11.4355
  11   1.0000      -0.419436       -11.4134
  12   1.0000      -0.400895       -10.9089
  13   0.0000       0.016070         0.4373
  14   0.0000       0.059776         1.6266
  15   0.0000       0.059788         1.6269
  16   0.0000       0.060657         1.6505
  17   0.0000       0.155531         4.2322

E(0)                                       ...  -1506.829396169
E(0)                                       ...  -1506.829396169
E(CORR)                                    ...     -0.698998128
E(TOT)                                     ...  -1507.528394298
E(CCSD(T))                                 ...  -1507.553446862

MULLIKEN ATOMIC CHARGES AND SPIN DENSITIES
------------------------------------------
   0 Ni:    0.000000    2.000000
Sum of atomic charges       :    0.0000000

LOEWDIN ATOMIC CHARGES AND SPIN DENSITIES
-----------------------------------------
   0 Ni:    0.000000    2.000000

FINAL SINGLE POINT ENERGY     -1507.580432731344

DIPOLE MOMENT
-------------
                                X             Y             Z
Electronic contribution:     -0.00000      -0.00000      -0.00000
Nuclear contribution   :      0.00000       0.00000       0.00000
                        -----------------------------------------
Total Dipole Moment    :     -0.00000      -0.00000      -0.00000
                        -----------------------------------------
Magnitude (a.u.)       :      0.00000
Magnitude (Debye)      :      0.00000

Rotational constants in cm-1:     0.000000     0.000000     0.000000
Rotational constants in MHz :     0.000000     0.000000     0.000000

                             ****ORCA TERMINATED NORMALLY****
TOTAL RUN TIME: 0 days 0 hours 2 minutes 11 seconds 568 msec
