                         Program Version 4.2.0 -  RELEASE  -
|  1> #
|  2> # 72_F ccsd(t)/cbs
|  3> #
|  4> ! ccsd(t) extrapolate(3/4,def2) verytightscf
|  5>
|  6> *xyz 0 2
|  7> F 0.0 0.0 0.0
|  8> *
|  9>
| 10> %maxcore 5000
| 11> %pal
| 12> nprocs 21
| 13> end
| 14>
| 15>
| 16>                          ****END OF INPUT****
 Total Charge           Charge          ....    0
 Multiplicity           Mult            ....    2
 Number of Electrons    NEL             ....    9
E(0)                                       ...    -99.411798500
E(0)                                       ...    -99.411798500
E(CORR)                                    ...     -0.209824107
E(TOT)                                     ...    -99.621622607
E(CCSD(T))                                 ...    -99.625057103

CARTESIAN COORDINATES (ANGSTROEM)
---------------------------------
  F      0.000000    0.000000    0.000000

 Multiplicity           Mult            ....    2
 Number of Electrons    NEL             ....    9
 Basis Dimension        Dim             ....   57

ORBITAL ENERGIES
----------------
                 SPIN UP ORBITALS
  NO   OCC          E(Eh)            E(eV)
   0   1.0000     -26.406332      -718.5528
   1   1.0000      -1.672072       -45.4994
   2   1.0000      -0.845017       -22.9941
   3   1.0000      -0.731296       -19.8996
   4   1.0000      -0.731296       -19.8996
   5   0.0000       0.407839        11.0979
   6   0.0000       0.430796        11.7226
   7   0.0000       0.430796        11.7226
   8   0.0000       0.645313        17.5599
   9   0.0000       1.533350        41.7246

                 SPIN DOWN ORBITALS
  NO   OCC          E(Eh)            E(eV)
   0   1.0000     -26.358378      -717.2479
   1   1.0000      -1.476758       -40.1846
   2   1.0000      -0.679634       -18.4938
   3   1.0000      -0.679634       -18.4938
   4   0.0000       0.048733         1.3261
   5   0.0000       0.436982        11.8909
   6   0.0000       0.436982        11.8909
   7   0.0000       0.506735        13.7890
   8   0.0000       0.671024        18.2595

E(0)                                       ...    -99.415886982
E(0)                                       ...    -99.415886982
E(CORR)                                    ...     -0.230651732
E(TOT)                                     ...    -99.646538715
E(CCSD(T))                                 ...    -99.651179565

MULLIKEN ATOMIC CHARGES AND SPIN DENSITIES
------------------------------------------
   0 F :    0.000000    1.000000
Sum of atomic charges       :    0.0000000

LOEWDIN ATOMIC CHARGES AND SPIN DENSITIES
-----------------------------------------
   0 F :   -0.000000    1.000000

FINAL SINGLE POINT ENERGY       -99.668064162553

DIPOLE MOMENT
-------------
                                X             Y             Z
Electronic contribution:     -0.00000       0.00000      -0.00000
Nuclear contribution   :      0.00000       0.00000       0.00000
                        -----------------------------------------
Total Dipole Moment    :     -0.00000       0.00000      -0.00000
                        -----------------------------------------
Magnitude (a.u.)       :      0.00000
Magnitude (Debye)      :      0.00000

Rotational constants in cm-1:     0.000000     0.000000     0.000000
Rotational constants in MHz :     0.000000     0.000000     0.000000

                             ****ORCA TERMINATED NORMALLY****
TOTAL RUN TIME: 0 days 0 hours 0 minutes 9 seconds 60 msec
