                         Program Version 4.2.0 -  RELEASE  -
|  1> #
|  2> # 73_Cl ccsd(t)/cbs
|  3> #
|  4> ! ccsd(t) extrapolate(3/4,def2) verytightscf
|  5>
|  6> *xyz 0 2
|  7> Cl 0.0 0.0 0.0
|  8> *
|  9>
| 10> %maxcore 5000
| 11> %pal
| 12> nprocs 21
| 13> end
| 14>
| 15>
| 16>                          ****END OF INPUT****
 Total Charge           Charge          ....    0
 Multiplicity           Mult            ....    2
 Number of Electrons    NEL             ....   17
E(0)                                       ...   -459.476852404
E(0)                                       ...   -459.476852404
E(CORR)                                    ...     -0.182029552
E(TOT)                                     ...   -459.658881956
E(CCSD(T))                                 ...   -459.664645569

CARTESIAN COORDINATES (ANGSTROEM)
---------------------------------
  Cl     0.000000    0.000000    0.000000

 Multiplicity           Mult            ....    2
 Number of Electrons    NEL             ....   17
 Basis Dimension        Dim             ....   70

ORBITAL ENERGIES
----------------
                 SPIN UP ORBITALS
  NO   OCC          E(Eh)            E(eV)
   0   1.0000    -104.889286     -2854.1826
   1   1.0000     -10.612050      -288.7686
   2   1.0000      -8.097794      -220.3522
   3   1.0000      -8.073505      -219.6912
   4   1.0000      -8.073505      -219.6912
   5   1.0000      -1.135935       -30.9104
   6   1.0000      -0.581646       -15.8274
   7   1.0000      -0.502356       -13.6698
   8   1.0000      -0.502356       -13.6698
   9   0.0000       0.260467         7.0877
  10   0.0000       0.280336         7.6283
  11   0.0000       0.280336         7.6283
  12   0.0000       0.362360         9.8603
  13   0.0000       0.437350        11.9009

                 SPIN DOWN ORBITALS
  NO   OCC          E(Eh)            E(eV)
   0   1.0000    -104.877641     -2853.8657
   1   1.0000     -10.600870      -288.4643
   2   1.0000      -8.067463      -219.5268
   3   1.0000      -8.067463      -219.5268
   4   1.0000      -8.048161      -219.0016
   5   1.0000      -1.014290       -27.6002
   6   1.0000      -0.480740       -13.0816
   7   1.0000      -0.480740       -13.0816
   8   0.0000      -0.038271        -1.0414
   9   0.0000       0.283305         7.7091
  10   0.0000       0.283305         7.7091
  11   0.0000       0.309470         8.4211
  12   0.0000       0.378963        10.3121

E(0)                                       ...   -459.489540990
E(0)                                       ...   -459.489540990
E(CORR)                                    ...     -0.198488831
E(TOT)                                     ...   -459.688029821
E(CCSD(T))                                 ...   -459.695345317

MULLIKEN ATOMIC CHARGES AND SPIN DENSITIES
------------------------------------------
   0 Cl:   -0.000000    1.000000
Sum of atomic charges       :   -0.0000000

LOEWDIN ATOMIC CHARGES AND SPIN DENSITIES
-----------------------------------------
   0 Cl:   -0.000000    1.000000

FINAL SINGLE POINT ENERGY      -459.710434616787

DIPOLE MOMENT
-------------
                                X             Y             Z
Electronic contribution:      0.00000      -0.00000      -0.00000
Nuclear contribution   :      0.00000       0.00000       0.00000
                        -----------------------------------------
Total Dipole Moment    :      0.00000      -0.00000      -0.00000
                        -----------------------------------------
Magnitude (a.u.)       :      0.00000
Magnitude (Debye)      :      0.00000

Rotational constants in cm-1:     0.000000     0.000000     0.000000
Rotational constants in MHz :     0.000000     0.000000     0.000000

                             ****ORCA TERMINATED NORMALLY****
TOTAL RUN TIME: 0 days 0 hours 0 minutes 11 seconds 47 msec
