                         Program Version 4.2.0 -  RELEASE  -
|  1> #
|  2> # 74_Br ccsd(t)/cbs
|  3> #
|  4> ! ccsd(t) extrapolate(3/4,def2) verytightscf
|  5>
|  6> *xyz 0 2
|  7> Br 0.0 0.0 0.0
|  8> *
|  9>
| 10> %maxcore 5000
| 11> %pal
| 12> nprocs 24
| 13> end
| 14>
| 15>
| 16>                          ****END OF INPUT****
 Total Charge           Charge          ....    0
 Multiplicity           Mult            ....    2
 Number of Electrons    NEL             ....   35
E(0)                                       ...  -2572.398101168
E(0)                                       ...  -2572.398101168
E(CORR)                                    ...     -0.256750963
E(TOT)                                     ...  -2572.654852132
E(CCSD(T))                                 ...  -2572.661645384

CARTESIAN COORDINATES (ANGSTROEM)
---------------------------------
  Br     0.000000    0.000000    0.000000

 Multiplicity           Mult            ....    2
 Number of Electrons    NEL             ....   35
 Basis Dimension        Dim             ....   89

ORBITAL ENERGIES
----------------
                 SPIN UP ORBITALS
  NO   OCC          E(Eh)            E(eV)
   0   1.0000    -490.062422    -13335.2765
   1   1.0000     -65.200902     -1774.2067
   2   1.0000     -58.561449     -1593.5380
   3   1.0000     -58.554108     -1593.3383
   4   1.0000     -58.554108     -1593.3383
   5   1.0000      -9.875233      -268.7187
   6   1.0000      -7.498339      -204.0402
   7   1.0000      -7.475544      -203.4199
   8   1.0000      -7.475544      -203.4199
   9   1.0000      -3.232893       -87.9715
  10   1.0000      -3.227533       -87.8256
  11   1.0000      -3.227533       -87.8256
  12   1.0000      -3.211683       -87.3943
  13   1.0000      -3.211683       -87.3943
  14   1.0000      -1.047802       -28.5122
  15   1.0000      -0.523717       -14.2511
  16   1.0000      -0.454174       -12.3587
  17   1.0000      -0.454174       -12.3587
  18   0.0000       0.246738         6.7141
  19   0.0000       0.266559         7.2534
  20   0.0000       0.266559         7.2534
  21   0.0000       0.313948         8.5430
  22   0.0000       0.422927        11.5084

                 SPIN DOWN ORBITALS
  NO   OCC          E(Eh)            E(eV)
   0   1.0000    -490.058035    -13335.1571
   1   1.0000     -65.198517     -1774.1419
   2   1.0000     -58.552684     -1593.2995
   3   1.0000     -58.552684     -1593.2995
   4   1.0000     -58.549406     -1593.2103
   5   1.0000      -9.867029      -268.4955
   6   1.0000      -7.473490      -203.3640
   7   1.0000      -7.473490      -203.3640
   8   1.0000      -7.468778      -203.2358
   9   1.0000      -3.222071       -87.6770
  10   1.0000      -3.219306       -87.6018
  11   1.0000      -3.219306       -87.6018
  12   1.0000      -3.211332       -87.3848
  13   1.0000      -3.211332       -87.3848
  14   1.0000      -0.940875       -25.6025
  15   1.0000      -0.434124       -11.8131
  16   1.0000      -0.434124       -11.8131
  17   0.0000      -0.046960        -1.2779
  18   0.0000       0.269577         7.3355
  19   0.0000       0.269577         7.3355
  20   0.0000       0.289969         7.8905
  21   0.0000       0.329022         8.9531

E(0)                                       ...  -2572.447696509
E(0)                                       ...  -2572.447696509
E(CORR)                                    ...     -0.550174119
E(TOT)                                     ...  -2572.997870628
E(CCSD(T))                                 ...  -2573.008472013

MULLIKEN ATOMIC CHARGES AND SPIN DENSITIES
------------------------------------------
   0 Br:   -0.000000    1.000000
Sum of atomic charges       :   -0.0000000

LOEWDIN ATOMIC CHARGES AND SPIN DENSITIES
-----------------------------------------
   0 Br:   -0.000000    1.000000

FINAL SINGLE POINT ENERGY     -2573.235474370290

DIPOLE MOMENT
-------------
                                X             Y             Z
Electronic contribution:     -0.00000       0.00000      -0.00000
Nuclear contribution   :      0.00000       0.00000       0.00000
                        -----------------------------------------
Total Dipole Moment    :     -0.00000       0.00000      -0.00000
                        -----------------------------------------
Magnitude (a.u.)       :      0.00000
Magnitude (Debye)      :      0.00000

Rotational constants in cm-1:     0.000000     0.000000     0.000000
Rotational constants in MHz :     0.000000     0.000000     0.000000

                             ****ORCA TERMINATED NORMALLY****
TOTAL RUN TIME: 0 days 0 hours 0 minutes 22 seconds 981 msec
