                         Program Version 4.2.0 -  RELEASE  -
|  1> #
|  2> # 75_O ccsd(t)/cbs
|  3> #
|  4> ! ccsd(t) extrapolate(3/4,def2) verytightscf
|  5>
|  6> *xyz 0 3
|  7> O 0.0 0.0 0.0
|  8> *
|  9>
| 10> %maxcore 5000
| 11> %pal
| 12> nprocs 15
| 13> end
| 14>
| 15>
| 16>                          ****END OF INPUT****
 Total Charge           Charge          ....    0
 Multiplicity           Mult            ....    3
 Number of Electrons    NEL             ....    8
E(0)                                       ...    -74.815625091
E(0)                                       ...    -74.815625091
E(CORR)                                    ...     -0.158274484
E(TOT)                                     ...    -74.973899575
E(CCSD(T))                                 ...    -74.976745115

CARTESIAN COORDINATES (ANGSTROEM)
---------------------------------
  O      0.000000    0.000000    0.000000

 Multiplicity           Mult            ....    3
 Number of Electrons    NEL             ....    8
 Basis Dimension        Dim             ....   57

ORBITAL ENERGIES
----------------
                 SPIN UP ORBITALS
  NO   OCC          E(Eh)            E(eV)
   0   1.0000     -20.706989      -563.4658
   1   1.0000      -1.417758       -38.5791
   2   1.0000      -0.710579       -19.3358
   3   1.0000      -0.710579       -19.3358
   4   1.0000      -0.611116       -16.6293
   5   0.0000       0.338456         9.2099
   6   0.0000       0.338456         9.2099
   7   0.0000       0.360189         9.8012
   8   0.0000       0.519201        14.1282
   9   0.0000       1.152777        31.3687

                 SPIN DOWN ORBITALS
  NO   OCC          E(Eh)            E(eV)
   0   1.0000     -20.628606      -561.3329
   1   1.0000      -1.075419       -29.2636
   2   1.0000      -0.521501       -14.1908
   3   0.0000       0.086802         2.3620
   4   0.0000       0.086802         2.3620
   5   0.0000       0.372577        10.1383
   6   0.0000       0.446518        12.1504
   7   0.0000       0.446518        12.1504

E(0)                                       ...    -74.818629325
E(0)                                       ...    -74.818629325
E(CORR)                                    ...     -0.171742601
E(TOT)                                     ...    -74.990371926
E(CCSD(T))                                 ...    -74.994067519

MULLIKEN ATOMIC CHARGES AND SPIN DENSITIES
------------------------------------------
   0 O :   -0.000000    2.000000
Sum of atomic charges       :   -0.0000000

LOEWDIN ATOMIC CHARGES AND SPIN DENSITIES
-----------------------------------------
   0 O :   -0.000000    2.000000

FINAL SINGLE POINT ENERGY       -75.005087363257

DIPOLE MOMENT
-------------
                                X             Y             Z
Electronic contribution:      0.00000      -0.00000       0.00000
Nuclear contribution   :      0.00000       0.00000       0.00000
                        -----------------------------------------
Total Dipole Moment    :      0.00000      -0.00000       0.00000
                        -----------------------------------------
Magnitude (a.u.)       :      0.00000
Magnitude (Debye)      :      0.00000

Rotational constants in cm-1:     0.000000     0.000000     0.000000
Rotational constants in MHz :     0.000000     0.000000     0.000000

                             ****ORCA TERMINATED NORMALLY****
TOTAL RUN TIME: 0 days 0 hours 0 minutes 8 seconds 750 msec
