                         Program Version 4.2.0 -  RELEASE  -
|  1> #
|  2> # 76_S ccsd(t)/cbs
|  3> #
|  4> ! ccsd(t) extrapolate(3/4,def2) verytightscf
|  5>
|  6> *xyz 0 3
|  7> S 0.0 0.0 0.0
|  8> *
|  9>
| 10> %maxcore 5000
| 11> %pal
| 12> nprocs 15
| 13> end
| 14>
| 15>
| 16>                          ****END OF INPUT****
 Total Charge           Charge          ....    0
 Multiplicity           Mult            ....    3
 Number of Electrons    NEL             ....   16
E(0)                                       ...   -397.501998395
E(0)                                       ...   -397.501998395
E(CORR)                                    ...     -0.140003265
E(TOT)                                     ...   -397.642001659
E(CCSD(T))                                 ...   -397.646740094

CARTESIAN COORDINATES (ANGSTROEM)
---------------------------------
  S      0.000000    0.000000    0.000000

 Multiplicity           Mult            ....    3
 Number of Electrons    NEL             ....   16
 Basis Dimension        Dim             ....   70

ORBITAL ENERGIES
----------------
                 SPIN UP ORBITALS
  NO   OCC          E(Eh)            E(eV)
   0   1.0000     -92.012728     -2503.7936
   1   1.0000      -9.012406      -245.2400
   2   1.0000      -6.705551      -182.4673
   3   1.0000      -6.705551      -182.4673
   4   1.0000      -6.685059      -181.9097
   5   1.0000      -0.989562       -26.9274
   6   1.0000      -0.486746       -13.2450
   7   1.0000      -0.486746       -13.2450
   8   1.0000      -0.415298       -11.3008
   9   0.0000       0.237359         6.4589
  10   0.0000       0.237359         6.4589
  11   0.0000       0.257811         7.0154
  12   0.0000       0.290496         7.9048
  13   0.0000       0.350741         9.5441

                 SPIN DOWN ORBITALS
  NO   OCC          E(Eh)            E(eV)
   0   1.0000     -91.993811     -2503.2789
   1   1.0000      -8.993822      -244.7343
   2   1.0000      -6.674985      -181.6356
   3   1.0000      -6.658793      -181.1950
   4   1.0000      -6.658793      -181.1950
   5   1.0000      -0.773736       -21.0544
   6   1.0000      -0.379343       -10.3225
   7   0.0000       0.007528         0.2048
   8   0.0000       0.007528         0.2048
   9   0.0000       0.263970         7.1830
  10   0.0000       0.294000         8.0001
  11   0.0000       0.294000         8.0001

E(0)                                       ...   -397.512995844
E(0)                                       ...   -397.512995844
E(CORR)                                    ...     -0.149836578
E(TOT)                                     ...   -397.662832422
E(CCSD(T))                                 ...   -397.668694318

MULLIKEN ATOMIC CHARGES AND SPIN DENSITIES
------------------------------------------
   0 S :    0.000000    2.000000
Sum of atomic charges       :    0.0000000

LOEWDIN ATOMIC CHARGES AND SPIN DENSITIES
-----------------------------------------
   0 S :    0.000000    2.000000

FINAL SINGLE POINT ENERGY      -397.678325215559

DIPOLE MOMENT
-------------
                                X             Y             Z
Electronic contribution:     -0.00000       0.00000      -0.00000
Nuclear contribution   :      0.00000       0.00000       0.00000
                        -----------------------------------------
Total Dipole Moment    :     -0.00000       0.00000      -0.00000
                        -----------------------------------------
Magnitude (a.u.)       :      0.00000
Magnitude (Debye)      :      0.00000

Rotational constants in cm-1:     0.000000     0.000000     0.000000
Rotational constants in MHz :     0.000000     0.000000     0.000000

                             ****ORCA TERMINATED NORMALLY****
TOTAL RUN TIME: 0 days 0 hours 0 minutes 9 seconds 707 msec
