                         Program Version 4.2.0 -  RELEASE  -
|  1> #
|  2> # 01_ScH tpssh/aug-cc-pvtz
|  3> #
|  4> ! tpssh d3bj aug-cc-pvtz def2/jk grid4 nofinalgrid
|  5>
|  6> *xyz 0 1
|  7>   Sc  0.00000000000000      0.00000000000000      0.11546868383427
|  8>   H   0.00000000000000      0.00000000000000      1.88453131616573
|  9> *
| 10>
| 11> %pal
| 12> nprocs 24
| 13> end
| 14>
| 15>
| 16>                          ****END OF INPUT****

CARTESIAN COORDINATES (ANGSTROEM)
---------------------------------
  Sc     0.000000    0.000000    0.115469
  H      0.000000    0.000000    1.884531

 Total Charge           Charge          ....    0
 Multiplicity           Mult            ....    1
 Number of Electrons    NEL             ....   22
 Basis Dimension        Dim             ....  116

ORBITAL ENERGIES
----------------

  NO   OCC          E(Eh)            E(eV)
   0   2.0000    -161.560397     -4396.2819
   1   2.0000     -17.546106      -477.4538
   2   2.0000     -14.454788      -393.3348
   3   2.0000     -14.454788      -393.3348
   4   2.0000     -14.439470      -392.9180
   5   2.0000      -2.103019       -57.2261
   6   2.0000      -1.305852       -35.5340
   7   2.0000      -1.305852       -35.5340
   8   2.0000      -1.283589       -34.9282
   9   2.0000      -0.271488        -7.3876
  10   2.0000      -0.156246        -4.2517
  11   0.0000      -0.111098        -3.0231
  12   0.0000      -0.111096        -3.0231
  13   0.0000      -0.091364        -2.4861
  14   0.0000      -0.091364        -2.4861
  15   0.0000      -0.075074        -2.0429

MULLIKEN ATOMIC CHARGES
-----------------------
   0 Sc:    0.226657
   1 H :   -0.226657
Sum of atomic charges:   -0.0000000

LOEWDIN ATOMIC CHARGES
----------------------
   0 Sc:    0.752831
   1 H :   -0.752831

  Mayer bond orders larger than 0.100000
B(  0-Sc,  1-H ) :   1.0021

Dispersion correction           -0.000552814
FINAL SINGLE POINT ENERGY      -761.224958975562

DIPOLE MOMENT
-------------
                                X             Y             Z
Electronic contribution:      0.00000       0.00000      -2.48010
Nuclear contribution   :      0.00000       0.00000       1.73028
                        -----------------------------------------
Total Dipole Moment    :      0.00000       0.00000      -0.74981
                        -----------------------------------------
Magnitude (a.u.)       :      0.74981
Magnitude (Debye)      :      1.90587

Rotational constants in cm-1:     0.000000     5.463605     5.463605
Rotational constants in MHz :     0.000000 163794.743331 163794.743331

                             ****ORCA TERMINATED NORMALLY****
TOTAL RUN TIME: 0 days 0 hours 1 minutes 25 seconds 666 msec
