                         Program Version 4.2.0 -  RELEASE  -
|  1> #
|  2> # 04_ScBr tpssh/aug-cc-pvtz
|  3> #
|  4> ! tpssh d3bj aug-cc-pvtz def2/jk grid4 nofinalgrid
|  5>
|  6> *xyz 0 1
|  7>   Sc  0.00000000000000      0.00000000000000     -0.19342129509946
|  8>   Br  0.00000000000000      0.00000000000000      2.19342129509946
|  9> *
| 10>
| 11> %pal
| 12> nprocs 24
| 13> end
| 14>
| 15>
| 16>                          ****END OF INPUT****

CARTESIAN COORDINATES (ANGSTROEM)
---------------------------------
  Sc     0.000000    0.000000   -0.193421
  Br     0.000000    0.000000    2.193421

 Total Charge           Charge          ....    0
 Multiplicity           Mult            ....    1
 Number of Electrons    NEL             ....   56
 Basis Dimension        Dim             ....  152

ORBITAL ENERGIES
----------------

  NO   OCC          E(Eh)            E(eV)
   0   2.0000    -482.551081    -13130.8825
   1   2.0000    -161.575728     -4396.6991
   2   2.0000     -62.264804     -1694.3115
   3   2.0000     -56.048747     -1525.1639
   4   2.0000     -56.048468     -1525.1563
   5   2.0000     -56.048468     -1525.1563
   6   2.0000     -17.561532      -477.8736
   7   2.0000     -14.470295      -393.7568
   8   2.0000     -14.470295      -393.7568
   9   2.0000     -14.454800      -393.3351
  10   2.0000      -8.607223      -234.2145
  11   2.0000      -6.421133      -174.7279
  12   2.0000      -6.420007      -174.6973
  13   2.0000      -6.420007      -174.6973
  14   2.0000      -2.546935       -69.3056
  15   2.0000      -2.546404       -69.2912
  16   2.0000      -2.546404       -69.2912
  17   2.0000      -2.545447       -69.2651
  18   2.0000      -2.545390       -69.2636
  19   2.0000      -2.117632       -57.6237
  20   2.0000      -1.318631       -35.8818
  21   2.0000      -1.318631       -35.8818
  22   2.0000      -1.303570       -35.4719
  23   2.0000      -0.727181       -19.7876
  24   2.0000      -0.321684        -8.7535
  25   2.0000      -0.292471        -7.9585
  26   2.0000      -0.292471        -7.9585
  27   2.0000      -0.164696        -4.4816
  28   0.0000      -0.122069        -3.3217
  29   0.0000      -0.122068        -3.3216
  30   0.0000      -0.101434        -2.7601
  31   0.0000      -0.101434        -2.7601
  32   0.0000      -0.093091        -2.5331

MULLIKEN ATOMIC CHARGES
-----------------------
   0 Sc:    0.307584
   1 Br:   -0.307584
Sum of atomic charges:    0.0000000

LOEWDIN ATOMIC CHARGES
----------------------
   0 Sc:   -0.290466
   1 Br:    0.290466

  Mayer bond orders larger than 0.100000
B(  0-Sc,  1-Br) :   1.6253

Dispersion correction           -0.001859926
FINAL SINGLE POINT ENERGY     -3334.853668942374

DIPOLE MOMENT
-------------
                                X             Y             Z
Electronic contribution:     -0.00000      -0.00000       2.59956
Nuclear contribution   :      0.00000       0.00000      -3.76776
                        -----------------------------------------
Total Dipole Moment    :     -0.00000      -0.00000      -1.16821
                        -----------------------------------------
Magnitude (a.u.)       :      1.16821
Magnitude (Debye)      :      2.96934

Rotational constants in cm-1:     0.000000     0.102849     0.102849
Rotational constants in MHz :     0.000000  3083.332036  3083.332036

                             ****ORCA TERMINATED NORMALLY****
TOTAL RUN TIME: 0 days 0 hours 3 minutes 15 seconds 75 msec
