                         Program Version 4.2.0 -  RELEASE  -
|  1> #
|  2> # 10_TiBr tpssh/aug-cc-pvtz
|  3> #
|  4> ! tpssh d3bj aug-cc-pvtz def2/jk grid4 nofinalgrid
|  5>
|  6> *xyz 0 4
|  7>   Ti  0.00000000000000      0.00000000000000     -0.20373332414567
|  8>   Br  0.00000000000000      0.00000000000000      2.20373332414567
|  9> *
| 10>
| 11> %pal
| 12> nprocs 24
| 13> end
| 14>
| 15>
| 16>                          ****END OF INPUT****

CARTESIAN COORDINATES (ANGSTROEM)
---------------------------------
  Ti     0.000000    0.000000   -0.203733
  Br     0.000000    0.000000    2.203733

 Total Charge           Charge          ....    0
 Multiplicity           Mult            ....    4
 Number of Electrons    NEL             ....   57
 Basis Dimension        Dim             ....  152

ORBITAL ENERGIES
----------------
                 SPIN UP ORBITALS
  NO   OCC          E(Eh)            E(eV)
   0   1.0000    -482.522932    -13130.1165
   1   1.0000    -178.619792     -4860.4917
   2   1.0000     -62.236671     -1693.5459
   3   1.0000     -56.020674     -1524.4000
   4   1.0000     -56.020228     -1524.3879
   5   1.0000     -56.020228     -1524.3879
   6   1.0000     -19.699937      -536.0625
   7   1.0000     -16.399991      -446.2664
   8   1.0000     -16.389199      -445.9728
   9   1.0000     -16.389199      -445.9728
  10   1.0000      -8.578941      -233.4449
  11   1.0000      -6.393203      -173.9679
  12   1.0000      -6.391506      -173.9217
  13   1.0000      -6.391506      -173.9217
  14   1.0000      -2.518877       -68.5421
  15   1.0000      -2.518201       -68.5237
  16   1.0000      -2.518201       -68.5237
  17   1.0000      -2.516815       -68.4860
  18   1.0000      -2.516776       -68.4849
  19   1.0000      -2.307886       -62.8008
  20   1.0000      -1.440083       -39.1867
  21   1.0000      -1.425057       -38.7778
  22   1.0000      -1.425057       -38.7778
  23   1.0000      -0.699069       -19.0226
  24   1.0000      -0.297763        -8.1026
  25   1.0000      -0.264369        -7.1939
  26   1.0000      -0.264369        -7.1939
  27   1.0000      -0.171222        -4.6592
  28   1.0000      -0.143042        -3.8924
  29   1.0000      -0.143040        -3.8923
  30   0.0000      -0.092749        -2.5238
  31   0.0000      -0.081755        -2.2247
  32   0.0000      -0.081755        -2.2247
  33   0.0000      -0.031627        -0.8606
  34   0.0000      -0.031627        -0.8606

                 SPIN DOWN ORBITALS
  NO   OCC          E(Eh)            E(eV)
   0   1.0000    -482.523162    -13130.1228
   1   1.0000    -178.619258     -4860.4771
   2   1.0000     -62.236745     -1693.5479
   3   1.0000     -56.020935     -1524.4071
   4   1.0000     -56.020391     -1524.3923
   5   1.0000     -56.020391     -1524.3923
   6   1.0000     -19.677140      -535.4422
   7   1.0000     -16.389567      -445.9828
   8   1.0000     -16.365909      -445.3390
   9   1.0000     -16.365909      -445.3390
  10   1.0000      -8.579256      -233.4534
  11   1.0000      -6.393689      -173.9811
  12   1.0000      -6.391829      -173.9305
  13   1.0000      -6.391829      -173.9305
  14   1.0000      -2.519324       -68.5543
  15   1.0000      -2.518635       -68.5356
  16   1.0000      -2.518635       -68.5356
  17   1.0000      -2.517143       -68.4949
  18   1.0000      -2.517103       -68.4939
  19   1.0000      -2.230872       -60.7051
  20   1.0000      -1.391961       -37.8772
  21   1.0000      -1.325567       -36.0705
  22   1.0000      -1.325567       -36.0705
  23   1.0000      -0.701473       -19.0881
  24   1.0000      -0.294213        -8.0059
  25   1.0000      -0.264372        -7.1939
  26   1.0000      -0.264372        -7.1939
  27   0.0000      -0.088824        -2.4170
  28   0.0000      -0.043934        -1.1955
  29   0.0000      -0.043934        -1.1955
  30   0.0000      -0.041941        -1.1413
  31   0.0000      -0.005636        -0.1534

MULLIKEN ATOMIC CHARGES AND SPIN POPULATIONS
--------------------------------------------
   0 Ti:    0.345638    3.031848
   1 Br:   -0.345638   -0.031848
Sum of atomic charges         :   -0.0000000

LOEWDIN ATOMIC CHARGES AND SPIN POPULATIONS
-------------------------------------------
   0 Ti:   -0.279994    2.952826
   1 Br:    0.279994    0.047174

  Mayer bond orders larger than 0.100000
B(  0-Ti,  1-Br) :   1.2729

Dispersion correction           -0.001862353
FINAL SINGLE POINT ENERGY     -3423.595338035373

DIPOLE MOMENT
-------------
                                X             Y             Z
Electronic contribution:      0.00000       0.00000       0.85507
Nuclear contribution   :      0.00000       0.00000      -2.89414
                        -----------------------------------------
Total Dipole Moment    :      0.00000       0.00000      -2.03906
                        -----------------------------------------
Magnitude (a.u.)       :      2.03906
Magnitude (Debye)      :      5.18289

Rotational constants in cm-1:     0.000000     0.097124     0.097124
Rotational constants in MHz :     0.000000  2911.693161  2911.693161

                             ****ORCA TERMINATED NORMALLY****
TOTAL RUN TIME: 0 days 0 hours 3 minutes 4 seconds 469 msec
