                         Program Version 4.2.0 -  RELEASE  -
|  1> #
|  2> # 12_TiS tpssh/aug-cc-pvtz
|  3> #
|  4> ! tpssh d3bj aug-cc-pvtz def2/jk grid4 nofinalgrid
|  5>
|  6> *xyz 0 3
|  7>   Ti  0.00000000000000      0.00000000000000     -0.04354772803913
|  8>   S   0.00000000000000      0.00000000000000      2.04354772803913
|  9> *
| 10>
| 11> %pal
| 12> nprocs 24
| 13> end
| 14>
| 15>
| 16>                          ****END OF INPUT****

CARTESIAN COORDINATES (ANGSTROEM)
---------------------------------
  Ti     0.000000    0.000000   -0.043548
  S      0.000000    0.000000    2.043548

 Total Charge           Charge          ....    0
 Multiplicity           Mult            ....    3
 Number of Electrons    NEL             ....   38
 Basis Dimension        Dim             ....  143

ORBITAL ENERGIES
----------------
                 SPIN UP ORBITALS
  NO   OCC          E(Eh)            E(eV)
   0   1.0000    -178.662371     -4861.6503
   1   1.0000     -88.683573     -2413.2027
   2   1.0000     -19.747860      -537.3666
   3   1.0000     -16.441076      -447.3844
   4   1.0000     -16.441076      -447.3844
   5   1.0000     -16.438996      -447.3278
   6   1.0000      -7.810830      -212.5435
   7   1.0000      -5.757729      -156.6758
   8   1.0000      -5.757729      -156.6758
   9   1.0000      -5.757150      -156.6600
  10   1.0000      -2.339249       -63.6542
  11   1.0000      -1.459411       -39.7126
  12   1.0000      -1.459411       -39.7126
  13   1.0000      -1.459087       -39.7038
  14   1.0000      -0.593350       -16.1459
  15   1.0000      -0.254642        -6.9292
  16   1.0000      -0.230748        -6.2790
  17   1.0000      -0.230748        -6.2790
  18   1.0000      -0.199334        -5.4242
  19   1.0000      -0.179179        -4.8757
  20   0.0000      -0.095261        -2.5922
  21   0.0000      -0.094682        -2.5764
  22   0.0000      -0.094682        -2.5764
  23   0.0000      -0.089120        -2.4251
  24   0.0000      -0.023672        -0.6441

                 SPIN DOWN ORBITALS
  NO   OCC          E(Eh)            E(eV)
   0   1.0000    -178.661799     -4861.6347
   1   1.0000     -88.685055     -2413.2430
   2   1.0000     -19.731876      -536.9316
   3   1.0000     -16.429197      -447.0612
   4   1.0000     -16.426125      -446.9776
   5   1.0000     -16.426125      -446.9776
   6   1.0000      -7.812210      -212.5810
   7   1.0000      -5.759747      -156.7307
   8   1.0000      -5.759747      -156.7307
   9   1.0000      -5.759372      -156.7205
  10   1.0000      -2.286100       -62.2080
  11   1.0000      -1.413463       -38.4623
  12   1.0000      -1.398102       -38.0443
  13   1.0000      -1.398102       -38.0443
  14   1.0000      -0.602118       -16.3845
  15   1.0000      -0.248726        -6.7682
  16   1.0000      -0.231309        -6.2942
  17   1.0000      -0.231309        -6.2942
  18   0.0000      -0.105146        -2.8612
  19   0.0000      -0.071924        -1.9572
  20   0.0000      -0.067504        -1.8369
  21   0.0000      -0.067504        -1.8369
  22   0.0000      -0.056511        -1.5377

MULLIKEN ATOMIC CHARGES AND SPIN POPULATIONS
--------------------------------------------
   0 Ti:    0.221674    2.231500
   1 S :   -0.221674   -0.231500
Sum of atomic charges         :   -0.0000000

LOEWDIN ATOMIC CHARGES AND SPIN POPULATIONS
-------------------------------------------
   0 Ti:    0.018607    2.045377
   1 S :   -0.018607   -0.045377

  Mayer bond orders larger than 0.100000
B(  0-Ti,  1-S ) :   2.5410

Dispersion correction           -0.001881254
FINAL SINGLE POINT ENERGY     -1247.705020260798

DIPOLE MOMENT
-------------
                                X             Y             Z
Electronic contribution:      0.00000      -0.00000      -5.23198
Nuclear contribution   :      0.00000       0.00000       3.01278
                        -----------------------------------------
Total Dipole Moment    :      0.00000      -0.00000      -2.21920
                        -----------------------------------------
Magnitude (a.u.)       :      2.21920
Magnitude (Debye)      :      5.64075

Rotational constants in cm-1:     0.000000     0.201505     0.201505
Rotational constants in MHz :     0.000000  6040.970749  6040.970749

                             ****ORCA TERMINATED NORMALLY****
TOTAL RUN TIME: 0 days 0 hours 2 minutes 16 seconds 837 msec
