                         Program Version 4.2.0 -  RELEASE  -
|  1> #
|  2> # 16_VBr tpssh/aug-cc-pvtz
|  3> #
|  4> ! tpssh d3bj aug-cc-pvtz def2/jk grid4 nofinalgrid
|  5>
|  6> *xyz 0 5
|  7>   V   0.00000000000000      0.00000000000000     -0.18045152200616
|  8>   Br  0.00000000000000      0.00000000000000      2.18045152200616
|  9> *
| 10>
| 11> %pal
| 12> nprocs 24
| 13> end
| 14>
| 15>
| 16>                          ****END OF INPUT****

CARTESIAN COORDINATES (ANGSTROEM)
---------------------------------
  V      0.000000    0.000000   -0.180452
  Br     0.000000    0.000000    2.180452

 Total Charge           Charge          ....    0
 Multiplicity           Mult            ....    5
 Number of Electrons    NEL             ....   58
 Basis Dimension        Dim             ....  152

ORBITAL ENERGIES
----------------
                 SPIN UP ORBITALS
  NO   OCC          E(Eh)            E(eV)
   0   1.0000    -482.524943    -13130.1712
   1   1.0000    -196.624367     -5350.4210
   2   1.0000     -62.238682     -1693.6006
   3   1.0000     -56.022759     -1524.4568
   4   1.0000     -56.022375     -1524.4463
   5   1.0000     -56.022041     -1524.4372
   6   1.0000     -22.067810      -600.4956
   7   1.0000     -18.550849      -504.7943
   8   1.0000     -18.548061      -504.7184
   9   1.0000     -18.543600      -504.5970
  10   1.0000      -8.581024      -233.5015
  11   1.0000      -6.395553      -174.0318
  12   1.0000      -6.394047      -173.9909
  13   1.0000      -6.392869      -173.9588
  14   1.0000      -2.593923       -70.5842
  15   1.0000      -2.521252       -68.6068
  16   1.0000      -2.520846       -68.5957
  17   1.0000      -2.519950       -68.5713
  18   1.0000      -2.518658       -68.5362
  19   1.0000      -2.518579       -68.5340
  20   1.0000      -1.639496       -44.6130
  21   1.0000      -1.634212       -44.4692
  22   1.0000      -1.627197       -44.2783
  23   1.0000      -0.702185       -19.1074
  24   1.0000      -0.306478        -8.3397
  25   1.0000      -0.273674        -7.4471
  26   1.0000      -0.269113        -7.3229
  27   1.0000      -0.202900        -5.5212
  28   1.0000      -0.189194        -5.1482
  29   1.0000      -0.188859        -5.1391
  30   1.0000      -0.172835        -4.7031
  31   0.0000      -0.107044        -2.9128
  32   0.0000      -0.102898        -2.8000
  33   0.0000      -0.036697        -0.9986
  34   0.0000      -0.032862        -0.8942
  35   0.0000      -0.000239        -0.0065

                 SPIN DOWN ORBITALS
  NO   OCC          E(Eh)            E(eV)
   0   1.0000    -482.525141    -13130.1766
   1   1.0000    -196.623630     -5350.4010
   2   1.0000     -62.238735     -1693.6021
   3   1.0000     -56.023034     -1524.4643
   4   1.0000     -56.022592     -1524.4522
   5   1.0000     -56.022032     -1524.4370
   6   1.0000     -22.028877      -599.4362
   7   1.0000     -18.524279      -504.0713
   8   1.0000     -18.515121      -503.8221
   9   1.0000     -18.505458      -503.5591
  10   1.0000      -8.581284      -233.5086
  11   1.0000      -6.396089      -174.0464
  12   1.0000      -6.394460      -174.0021
  13   1.0000      -6.392862      -173.9586
  14   1.0000      -2.521816       -68.6221
  15   1.0000      -2.521385       -68.6104
  16   1.0000      -2.520195       -68.5780
  17   1.0000      -2.518835       -68.5410
  18   1.0000      -2.518705       -68.5375
  19   1.0000      -2.473013       -67.2941
  20   1.0000      -1.531145       -41.6646
  21   1.0000      -1.506459       -40.9928
  22   1.0000      -1.480256       -40.2798
  23   1.0000      -0.703948       -19.1554
  24   1.0000      -0.298219        -8.1149
  25   1.0000      -0.268560        -7.3079
  26   1.0000      -0.263960        -7.1827
  27   0.0000      -0.089251        -2.4286
  28   0.0000      -0.053436        -1.4541
  29   0.0000      -0.039106        -1.0641
  30   0.0000      -0.026166        -0.7120
  31   0.0000      -0.018360        -0.4996

MULLIKEN ATOMIC CHARGES AND SPIN POPULATIONS
--------------------------------------------
   0 V :    0.330850    4.051533
   1 Br:   -0.330850   -0.051533
Sum of atomic charges         :   -0.0000000

LOEWDIN ATOMIC CHARGES AND SPIN POPULATIONS
-------------------------------------------
   0 V :   -0.144386    3.917333
   1 Br:    0.144386    0.082667

  Mayer bond orders larger than 0.100000
B(  0-V ,  1-Br) :   1.2355

Dispersion correction           -0.001986657
FINAL SINGLE POINT ENERGY     -3518.155771710451

DIPOLE MOMENT
-------------
                                X             Y             Z
Electronic contribution:      0.00000       0.00000       0.08228
Nuclear contribution   :      0.00000       0.00000      -1.86860
                        -----------------------------------------
Total Dipole Moment    :      0.00000       0.00000      -1.78632
                        -----------------------------------------
Magnitude (a.u.)       :      1.78632
Magnitude (Debye)      :      4.54047

Rotational constants in cm-1:     0.000000     0.097224     0.097224
Rotational constants in MHz :     0.000000  2914.715129  2914.715129

                             ****ORCA TERMINATED NORMALLY****
TOTAL RUN TIME: 0 days 0 hours 5 minutes 7 seconds 110 msec
