                         Program Version 4.2.0 -  RELEASE  -
|  1> #
|  2> # 17_VO tpssh/aug-cc-pvtz
|  3> #
|  4> ! tpssh d3bj aug-cc-pvtz def2/jk grid4 nofinalgrid
|  5>
|  6> *xyz 0 4
|  7>   V   0.00000000000000      0.00000000000000      0.20415600493149
|  8>   O   0.00000000000000      0.00000000000000      1.79584399506851
|  9> *
| 10>
| 11> %pal
| 12> nprocs 24
| 13> end
| 14>
| 15>
| 16>                          ****END OF INPUT****

CARTESIAN COORDINATES (ANGSTROEM)
---------------------------------
  V      0.000000    0.000000    0.204156
  O      0.000000    0.000000    1.795844

 Total Charge           Charge          ....    0
 Multiplicity           Mult            ....    4
 Number of Electrons    NEL             ....   31
 Basis Dimension        Dim             ....  139

ORBITAL ENERGIES
----------------
                 SPIN UP ORBITALS
  NO   OCC          E(Eh)            E(eV)
   0   1.0000    -196.652873     -5351.1967
   1   1.0000     -22.102603      -601.4424
   2   1.0000     -19.040078      -518.1069
   3   1.0000     -18.588603      -505.8216
   4   1.0000     -18.578656      -505.5509
   5   1.0000     -18.578656      -505.5509
   6   1.0000      -2.607328       -70.9490
   7   1.0000      -1.659850       -45.1668
   8   1.0000      -1.642003       -44.6812
   9   1.0000      -1.642003       -44.6812
  10   1.0000      -0.845721       -23.0132
  11   1.0000      -0.323626        -8.8063
  12   1.0000      -0.307937        -8.3794
  13   1.0000      -0.307937        -8.3794
  14   1.0000      -0.194065        -5.2808
  15   1.0000      -0.194065        -5.2808
  16   1.0000      -0.180553        -4.9131
  17   0.0000      -0.094839        -2.5807
  18   0.0000      -0.094839        -2.5807
  19   0.0000      -0.072426        -1.9708
  20   0.0000      -0.013032        -0.3546
  21   0.0000      -0.013031        -0.3546

                 SPIN DOWN ORBITALS
  NO   OCC          E(Eh)            E(eV)
   0   1.0000    -196.652032     -5351.1738
   1   1.0000     -22.073702      -600.6560
   2   1.0000     -19.048947      -518.3482
   3   1.0000     -18.576022      -505.4793
   4   1.0000     -18.548854      -504.7400
   5   1.0000     -18.548854      -504.7400
   6   1.0000      -2.519059       -68.5471
   7   1.0000      -1.610730       -43.8302
   8   1.0000      -1.526424       -41.5361
   9   1.0000      -1.526424       -41.5361
  10   1.0000      -0.862381       -23.4666
  11   1.0000      -0.318376        -8.6634
  12   1.0000      -0.312930        -8.5153
  13   1.0000      -0.312930        -8.5153
  14   0.0000      -0.093338        -2.5399
  15   0.0000      -0.045146        -1.2285
  16   0.0000      -0.045146        -1.2285
  17   0.0000      -0.030303        -0.8246
  18   0.0000      -0.030281        -0.8240

MULLIKEN ATOMIC CHARGES AND SPIN POPULATIONS
--------------------------------------------
   0 V :    0.512855    3.306102
   1 O :   -0.512855   -0.306102
Sum of atomic charges         :   -0.0000000

LOEWDIN ATOMIC CHARGES AND SPIN POPULATIONS
-------------------------------------------
   0 V :    0.574661    3.062160
   1 O :   -0.574661   -0.062160

  Mayer bond orders larger than 0.100000
B(  0-V ,  1-O ) :   2.2743

Dispersion correction           -0.000834279
FINAL SINGLE POINT ENERGY     -1019.271912157853

DIPOLE MOMENT
-------------
                                X             Y             Z
Electronic contribution:     -0.00000      -0.00000      -3.21951
Nuclear contribution   :      0.00000       0.00000       1.77684
                        -----------------------------------------
Total Dipole Moment    :     -0.00000      -0.00000      -1.44268
                        -----------------------------------------
Magnitude (a.u.)       :      1.44268
Magnitude (Debye)      :      3.66700

Rotational constants in cm-1:     0.000000     0.546523     0.546523
Rotational constants in MHz :     0.000000 16384.348098 16384.348098

                             ****ORCA TERMINATED NORMALLY****
TOTAL RUN TIME: 0 days 0 hours 2 minutes 5 seconds 310 msec
