                         Program Version 4.2.0 -  RELEASE  -
|  1> #
|  2> # 18_VS tpssh/aug-cc-pvtz
|  3> #
|  4> ! tpssh d3bj aug-cc-pvtz def2/jk grid4 nofinalgrid
|  5>
|  6> *xyz 0 4
|  7>   V   0.00000000000000      0.00000000000000     -0.02784157502378
|  8>   S   0.00000000000000      0.00000000000000      2.02784157502377
|  9> *
| 10>
| 11> %pal
| 12> nprocs 24
| 13> end
| 14>
| 15>
| 16>                          ****END OF INPUT****

CARTESIAN COORDINATES (ANGSTROEM)
---------------------------------
  V      0.000000    0.000000   -0.027842
  S      0.000000    0.000000    2.027842

 Total Charge           Charge          ....    0
 Multiplicity           Mult            ....    4
 Number of Electrons    NEL             ....   39
 Basis Dimension        Dim             ....  143

ORBITAL ENERGIES
----------------
                 SPIN UP ORBITALS
  NO   OCC          E(Eh)            E(eV)
   0   1.0000    -196.638063     -5350.7937
   1   1.0000     -88.689998     -2413.3775
   2   1.0000     -22.083474      -600.9219
   3   1.0000     -18.568267      -505.2682
   4   1.0000     -18.560558      -505.0585
   5   1.0000     -18.560558      -505.0585
   6   1.0000      -7.816911      -212.7090
   7   1.0000      -5.763453      -156.8315
   8   1.0000      -5.763453      -156.8315
   9   1.0000      -5.763075      -156.8212
  10   1.0000      -2.597424       -70.6795
  11   1.0000      -1.643582       -44.7241
  12   1.0000      -1.633099       -44.4389
  13   1.0000      -1.633099       -44.4389
  14   1.0000      -0.594855       -16.1868
  15   1.0000      -0.268673        -7.3110
  16   1.0000      -0.233454        -6.3526
  17   1.0000      -0.233454        -6.3526
  18   1.0000      -0.191724        -5.2171
  19   1.0000      -0.188998        -5.1429
  20   1.0000      -0.188997        -5.1429
  21   0.0000      -0.106077        -2.8865
  22   0.0000      -0.106077        -2.8865
  23   0.0000      -0.095137        -2.5888
  24   0.0000      -0.020350        -0.5537
  25   0.0000      -0.020350        -0.5537

                 SPIN DOWN ORBITALS
  NO   OCC          E(Eh)            E(eV)
   0   1.0000    -196.637510     -5350.7787
   1   1.0000     -88.692858     -2413.4554
   2   1.0000     -22.049957      -600.0098
   3   1.0000     -18.548924      -504.7419
   4   1.0000     -18.528343      -504.1818
   5   1.0000     -18.528343      -504.1818
   6   1.0000      -7.819603      -212.7822
   7   1.0000      -5.767656      -156.9459
   8   1.0000      -5.767656      -156.9459
   9   1.0000      -5.766754      -156.9214
  10   1.0000      -2.493533       -67.8525
  11   1.0000      -1.563563       -42.5467
  12   1.0000      -1.508145       -41.0387
  13   1.0000      -1.508145       -41.0387
  14   1.0000      -0.612372       -16.6635
  15   1.0000      -0.254475        -6.9246
  16   1.0000      -0.235231        -6.4010
  17   1.0000      -0.235231        -6.4010
  18   0.0000      -0.093545        -2.5455
  19   0.0000      -0.055255        -1.5036
  20   0.0000      -0.055255        -1.5036
  21   0.0000      -0.048633        -1.3234
  22   0.0000      -0.023009        -0.6261

MULLIKEN ATOMIC CHARGES AND SPIN POPULATIONS
--------------------------------------------
   0 V :    0.163429    3.508483
   1 S :   -0.163429   -0.508483
Sum of atomic charges         :   -0.0000000

LOEWDIN ATOMIC CHARGES AND SPIN POPULATIONS
-------------------------------------------
   0 V :    0.035664    3.224503
   1 S :   -0.035664   -0.224503

  Mayer bond orders larger than 0.100000
B(  0-V ,  1-S ) :   2.4897

Dispersion correction           -0.002009512
FINAL SINGLE POINT ENERGY     -1342.244927639735

DIPOLE MOMENT
-------------
                                X             Y             Z
Electronic contribution:     -0.00000       0.00000      -5.85024
Nuclear contribution   :      0.00000       0.00000       3.63475
                        -----------------------------------------
Total Dipole Moment    :     -0.00000       0.00000      -2.21549
                        -----------------------------------------
Magnitude (a.u.)       :      2.21549
Magnitude (Debye)      :      5.63133

Rotational constants in cm-1:     0.000000     0.202740     0.202740
Rotational constants in MHz :     0.000000  6078.002656  6078.002656

                             ****ORCA TERMINATED NORMALLY****
TOTAL RUN TIME: 0 days 0 hours 2 minutes 49 seconds 426 msec
