                         Program Version 4.2.0 -  RELEASE  -
|  1> #
|  2> # 19_CrH tpssh/aug-cc-pvtz
|  3> #
|  4> ! tpssh d3bj aug-cc-pvtz def2/jk grid4 nofinalgrid
|  5>
|  6> *xyz 0 6
|  7>   Cr  0.00000000000000      0.00000000000000      0.17036458455703
|  8>   H   0.00000000000000      0.00000000000000      1.82963541544297
|  9> *
| 10>
| 11> %pal
| 12> nprocs 24
| 13> end
| 14>
| 15>
| 16>                          ****END OF INPUT****

CARTESIAN COORDINATES (ANGSTROEM)
---------------------------------
  Cr     0.000000    0.000000    0.170365
  H      0.000000    0.000000    1.829635

 Total Charge           Charge          ....    0
 Multiplicity           Mult            ....    6
 Number of Electrons    NEL             ....   25
 Basis Dimension        Dim             ....  116

ORBITAL ENERGIES
----------------
                 SPIN UP ORBITALS
  NO   OCC          E(Eh)            E(eV)
   0   1.0000    -215.444986     -5862.5561
   1   1.0000     -24.499492      -666.6651
   2   1.0000     -20.765828      -565.0669
   3   1.0000     -20.764911      -565.0420
   4   1.0000     -20.764911      -565.0420
   5   1.0000      -2.837817       -77.2209
   6   1.0000      -1.795273       -48.8519
   7   1.0000      -1.793354       -48.7996
   8   1.0000      -1.793354       -48.7996
   9   1.0000      -0.258777        -7.0417
  10   1.0000      -0.193266        -5.2590
  11   1.0000      -0.193266        -5.2590
  12   1.0000      -0.186376        -5.0716
  13   1.0000      -0.186376        -5.0715
  14   1.0000      -0.175542        -4.7767
  15   0.0000      -0.079704        -2.1689
  16   0.0000      -0.034225        -0.9313
  17   0.0000      -0.034225        -0.9313
  18   0.0000       0.004718         0.1284
  19   0.0000       0.017528         0.4770

                 SPIN DOWN ORBITALS
  NO   OCC          E(Eh)            E(eV)
   0   1.0000    -215.444184     -5862.5343
   1   1.0000     -24.442020      -665.1012
   2   1.0000     -20.721360      -563.8569
   3   1.0000     -20.715091      -563.6863
   4   1.0000     -20.715091      -563.6863
   5   1.0000      -2.664702       -72.5102
   6   1.0000      -1.621401       -44.1206
   7   1.0000      -1.607878       -43.7526
   8   1.0000      -1.607878       -43.7526
   9   1.0000      -0.250236        -6.8093
  10   0.0000      -0.069222        -1.8836
  11   0.0000      -0.007687        -0.2092
  12   0.0000      -0.003475        -0.0946
  13   0.0000      -0.003475        -0.0946
  14   0.0000       0.008280         0.2253

MULLIKEN ATOMIC CHARGES AND SPIN POPULATIONS
--------------------------------------------
   0 Cr:    0.268267    5.157271
   1 H :   -0.268267   -0.157271
Sum of atomic charges         :   -0.0000000

LOEWDIN ATOMIC CHARGES AND SPIN POPULATIONS
-------------------------------------------
   0 Cr:    0.609079    4.891969
   1 H :   -0.609079    0.108031

  Mayer bond orders larger than 0.100000
B(  0-Cr,  1-H ) :   0.9839

Dispersion correction           -0.000564861
FINAL SINGLE POINT ENERGY     -1045.059147235068

DIPOLE MOMENT
-------------
                                X             Y             Z
Electronic contribution:     -0.00000       0.00000      -2.84940
Nuclear contribution   :      0.00000       0.00000       1.64492
                        -----------------------------------------
Total Dipole Moment    :     -0.00000       0.00000      -1.20448
                        -----------------------------------------
Magnitude (a.u.)       :      1.20448
Magnitude (Debye)      :      3.06155

Rotational constants in cm-1:     0.000000     6.192127     6.192127
Rotational constants in MHz :     0.000000 185635.310837 185635.310837

                             ****ORCA TERMINATED NORMALLY****
TOTAL RUN TIME: 0 days 0 hours 1 minutes 23 seconds 373 msec
