                         Program Version 4.2.0 -  RELEASE  -
|  1> #
|  2> # 21_CrCl tpssh/aug-cc-pvtz
|  3> #
|  4> ! tpssh d3bj aug-cc-pvtz def2/jk grid4 nofinalgrid
|  5>
|  6> *xyz 0 6
|  7>   Cr  0.00000000000000      0.00000000000000     -0.09885250745251
|  8>   Cl  0.00000000000000      0.00000000000000      2.09885250745250
|  9> *
| 10>
| 11> %pal
| 12> nprocs 24
| 13> end
| 14>
| 15>
| 16>                          ****END OF INPUT****

CARTESIAN COORDINATES (ANGSTROEM)
---------------------------------
  Cr     0.000000    0.000000   -0.098853
  Cl     0.000000    0.000000    2.098853

 Total Charge           Charge          ....    0
 Multiplicity           Mult            ....    6
 Number of Electrons    NEL             ....   41
 Basis Dimension        Dim             ....  143

ORBITAL ENERGIES
----------------
                 SPIN UP ORBITALS
  NO   OCC          E(Eh)            E(eV)
   0   1.0000    -215.473094     -5863.3210
   1   1.0000    -101.347603     -2757.8085
   2   1.0000     -24.526862      -667.4098
   3   1.0000     -20.792734      -565.7990
   4   1.0000     -20.792734      -565.7990
   5   1.0000     -20.792613      -565.7958
   6   1.0000      -9.326724      -253.7931
   7   1.0000      -7.070583      -192.4004
   8   1.0000      -7.068635      -192.3473
   9   1.0000      -7.068635      -192.3473
  10   1.0000      -2.866857       -78.0111
  11   1.0000      -1.826828       -49.7105
  12   1.0000      -1.821535       -49.5665
  13   1.0000      -1.821535       -49.5665
  14   1.0000      -0.731654       -19.9093
  15   1.0000      -0.316368        -8.6088
  16   1.0000      -0.287061        -7.8113
  17   1.0000      -0.287061        -7.8113
  18   1.0000      -0.213058        -5.7976
  19   1.0000      -0.213055        -5.7975
  20   1.0000      -0.204673        -5.5694
  21   1.0000      -0.204673        -5.5694
  22   1.0000      -0.198026        -5.3885
  23   0.0000      -0.112301        -3.0559
  24   0.0000      -0.032286        -0.8786
  25   0.0000      -0.032286        -0.8786
  26   0.0000       0.001924         0.0524
  27   0.0000       0.007827         0.2130

                 SPIN DOWN ORBITALS
  NO   OCC          E(Eh)            E(eV)
   0   1.0000    -215.472238     -5863.2977
   1   1.0000    -101.348006     -2757.8195
   2   1.0000     -24.469290      -665.8432
   3   1.0000     -20.748470      -564.5946
   4   1.0000     -20.742511      -564.4324
   5   1.0000     -20.742511      -564.4324
   6   1.0000      -9.327056      -253.8021
   7   1.0000      -7.072367      -192.4489
   8   1.0000      -7.068533      -192.3446
   9   1.0000      -7.068533      -192.3446
  10   1.0000      -2.693974       -73.3068
  11   1.0000      -1.653574       -44.9960
  12   1.0000      -1.636335       -44.5269
  13   1.0000      -1.636335       -44.5269
  14   1.0000      -0.732819       -19.9410
  15   1.0000      -0.308283        -8.3888
  16   1.0000      -0.273343        -7.4380
  17   1.0000      -0.273343        -7.4380
  18   0.0000      -0.085157        -2.3172
  19   0.0000      -0.024998        -0.6802
  20   0.0000      -0.016641        -0.4528
  21   0.0000      -0.016641        -0.4528
  22   0.0000      -0.008288        -0.2255

MULLIKEN ATOMIC CHARGES AND SPIN POPULATIONS
--------------------------------------------
   0 Cr:    0.379113    5.068873
   1 Cl:   -0.379113   -0.068873
Sum of atomic charges         :    0.0000000

LOEWDIN ATOMIC CHARGES AND SPIN POPULATIONS
-------------------------------------------
   0 Cr:    0.016138    4.890374
   1 Cl:   -0.016138    0.109626

  Mayer bond orders larger than 0.100000
B(  0-Cr,  1-Cl) :   1.0621

Dispersion correction           -0.001640501
FINAL SINGLE POINT ENERGY     -1504.787077967883

DIPOLE MOMENT
-------------
                                X             Y             Z
Electronic contribution:     -0.00000      -0.00000      -3.57164
Nuclear contribution   :      0.00000       0.00000       1.57322
                        -----------------------------------------
Total Dipole Moment    :     -0.00000      -0.00000      -1.99843
                        -----------------------------------------
Magnitude (a.u.)       :      1.99843
Magnitude (Debye)      :      5.07960

Rotational constants in cm-1:     0.000000     0.165568     0.165568
Rotational constants in MHz :     0.000000  4963.604658  4963.604658

                             ****ORCA TERMINATED NORMALLY****
TOTAL RUN TIME: 0 days 0 hours 2 minutes 0 seconds 380 msec
