                         Program Version 4.2.0 -  RELEASE  -
|  1> #
|  2> # 24_CrS tpssh/aug-cc-pvtz
|  3> #
|  4> ! tpssh d3bj aug-cc-pvtz def2/jk grid4 nofinalgrid
|  5>
|  6> *xyz 0 5
|  7>   Cr  0.00000000000000      0.00000000000000     -0.04064132858643
|  8>   S   0.00000000000000      0.00000000000000      2.04064132858643
|  9> *
| 10>
| 11> %pal
| 12> nprocs 24
| 13> end
| 14>
| 15>
| 16>                          ****END OF INPUT****

CARTESIAN COORDINATES (ANGSTROEM)
---------------------------------
  Cr     0.000000    0.000000   -0.040641
  S      0.000000    0.000000    2.040641

 Total Charge           Charge          ....    0
 Multiplicity           Mult            ....    5
 Number of Electrons    NEL             ....   40
 Basis Dimension        Dim             ....  143

ORBITAL ENERGIES
----------------
                 SPIN UP ORBITALS
  NO   OCC          E(Eh)            E(eV)
   0   1.0000    -215.503789     -5864.1562
   1   1.0000     -88.699479     -2413.6355
   2   1.0000     -24.561903      -668.3634
   3   1.0000     -20.829665      -566.8040
   4   1.0000     -20.828455      -566.7711
   5   1.0000     -20.824088      -566.6522
   6   1.0000      -7.825081      -212.9313
   7   1.0000      -5.772752      -157.0846
   8   1.0000      -5.771417      -157.0482
   9   1.0000      -5.770014      -157.0101
  10   1.0000      -2.891065       -78.6699
  11   1.0000      -1.848881       -50.3106
  12   1.0000      -1.847846       -50.2824
  13   1.0000      -1.841417       -50.1075
  14   1.0000      -0.597610       -16.2618
  15   1.0000      -0.281653        -7.6642
  16   1.0000      -0.268124        -7.2960
  17   1.0000      -0.250438        -6.8148
  18   1.0000      -0.234200        -6.3729
  19   1.0000      -0.233689        -6.3590
  20   1.0000      -0.209572        -5.7028
  21   1.0000      -0.182808        -4.9745
  22   0.0000      -0.139167        -3.7869
  23   0.0000      -0.106355        -2.8941
  24   0.0000      -0.027362        -0.7446
  25   0.0000      -0.024075        -0.6551
  26   0.0000       0.002904         0.0790

                 SPIN DOWN ORBITALS
  NO   OCC          E(Eh)            E(eV)
   0   1.0000    -215.502928     -5864.1328
   1   1.0000     -88.703128     -2413.7348
   2   1.0000     -24.508395      -666.9073
   3   1.0000     -20.788962      -565.6964
   4   1.0000     -20.784497      -565.5749
   5   1.0000     -20.774471      -565.3021
   6   1.0000      -7.828555      -213.0258
   7   1.0000      -5.782050      -157.3376
   8   1.0000      -5.776121      -157.1762
   9   1.0000      -5.771586      -157.0528
  10   1.0000      -2.731510       -74.3282
  11   1.0000      -1.695902       -46.1478
  12   1.0000      -1.681575       -45.7580
  13   1.0000      -1.659219       -45.1497
  14   1.0000      -0.623096       -16.9553
  15   1.0000      -0.262912        -7.1542
  16   1.0000      -0.253619        -6.9013
  17   1.0000      -0.226978        -6.1764
  18   0.0000      -0.093317        -2.5393
  19   0.0000      -0.051787        -1.4092
  20   0.0000      -0.044346        -1.2067
  21   0.0000      -0.036057        -0.9812
  22   0.0000      -0.030477        -0.8293

MULLIKEN ATOMIC CHARGES AND SPIN POPULATIONS
--------------------------------------------
   0 Cr:    0.280014    4.660431
   1 S :   -0.280014   -0.660431
Sum of atomic charges         :   -0.0000000

LOEWDIN ATOMIC CHARGES AND SPIN POPULATIONS
-------------------------------------------
   0 Cr:    0.040819    4.371994
   1 S :   -0.040819   -0.371994

  Mayer bond orders larger than 0.100000
B(  0-Cr,  1-S ) :   2.0760

Dispersion correction           -0.001875789
FINAL SINGLE POINT ENERGY     -1442.729437409569

DIPOLE MOMENT
-------------
                                X             Y             Z
Electronic contribution:      0.00000       0.00000      -4.98597
Nuclear contribution   :      0.00000       0.00000       2.92710
                        -----------------------------------------
Total Dipole Moment    :      0.00000       0.00000      -2.05887
                        -----------------------------------------
Magnitude (a.u.)       :      2.05887
Magnitude (Debye)      :      5.23322

Rotational constants in cm-1:     0.000000     0.196226     0.196226
Rotational constants in MHz :     0.000000  5882.717555  5882.717555

                             ****ORCA TERMINATED NORMALLY****
TOTAL RUN TIME: 0 days 0 hours 3 minutes 27 seconds 163 msec
