                         Program Version 4.2.0 -  RELEASE  -
|  1> #
|  2> # 26_MnF tpssh/aug-cc-pvtz
|  3> #
|  4> ! tpssh d3bj aug-cc-pvtz def2/jk grid4 nofinalgrid
|  5>
|  6> *xyz 0 7
|  7>   Mn  0.00000000000000      0.00000000000000      0.08590077209256
|  8>   F   0.00000000000000      0.00000000000000      1.91409922790744
|  9> *
| 10>
| 11> %pal
| 12> nprocs 24
| 13> end
| 14>
| 15>
| 16>                          ****END OF INPUT****

CARTESIAN COORDINATES (ANGSTROEM)
---------------------------------
  Mn     0.000000    0.000000    0.085901
  F      0.000000    0.000000    1.914099

 Total Charge           Charge          ....    0
 Multiplicity           Mult            ....    7
 Number of Electrons    NEL             ....   34
 Basis Dimension        Dim             ....  139

ORBITAL ENERGIES
----------------
                 SPIN UP ORBITALS
  NO   OCC          E(Eh)            E(eV)
   0   1.0000    -235.297461     -6402.7694
   1   1.0000     -27.240327      -741.2470
   2   1.0000     -24.531223      -667.5285
   3   1.0000     -23.289152      -633.7301
   4   1.0000     -23.289152      -633.7301
   5   1.0000     -23.284871      -633.6135
   6   1.0000      -3.269933       -88.9794
   7   1.0000      -2.138381       -58.1883
   8   1.0000      -2.138381       -58.1883
   9   1.0000      -2.128125       -57.9092
  10   1.0000      -1.072283       -29.1783
  11   1.0000      -0.409757       -11.1500
  12   1.0000      -0.377996       -10.2858
  13   1.0000      -0.377996       -10.2858
  14   1.0000      -0.348616        -9.4863
  15   1.0000      -0.348616        -9.4863
  16   1.0000      -0.299868        -8.1598
  17   1.0000      -0.299868        -8.1598
  18   1.0000      -0.292075        -7.9478
  19   1.0000      -0.189464        -5.1556
  20   0.0000      -0.046104        -1.2546
  21   0.0000      -0.046104        -1.2546
  22   0.0000      -0.001710        -0.0465
  23   0.0000       0.001825         0.0497
  24   0.0000       0.025973         0.7068

                 SPIN DOWN ORBITALS
  NO   OCC          E(Eh)            E(eV)
   0   1.0000    -235.295257     -6402.7095
   1   1.0000     -27.162811      -739.1377
   2   1.0000     -24.525657      -667.3771
   3   1.0000     -23.223838      -631.9528
   4   1.0000     -23.223838      -631.9528
   5   1.0000     -23.220635      -631.8656
   6   1.0000      -3.059827       -83.2621
   7   1.0000      -1.919364       -52.2285
   8   1.0000      -1.919364       -52.2285
   9   1.0000      -1.911857       -52.0243
  10   1.0000      -1.059404       -28.8279
  11   1.0000      -0.367313        -9.9951
  12   1.0000      -0.336573        -9.1586
  13   1.0000      -0.336573        -9.1586
  14   0.0000      -0.112583        -3.0635
  15   0.0000      -0.099111        -2.6969
  16   0.0000      -0.099086        -2.6963
  17   0.0000      -0.080348        -2.1864
  18   0.0000      -0.080348        -2.1864

MULLIKEN ATOMIC CHARGES AND SPIN POPULATIONS
--------------------------------------------
   0 Mn:    0.614646    5.871621
   1 F :   -0.614646    0.128379
Sum of atomic charges         :    0.0000000

LOEWDIN ATOMIC CHARGES AND SPIN POPULATIONS
-------------------------------------------
   0 Mn:    0.436234    5.744478
   1 F :   -0.436234    0.255522

  Mayer bond orders larger than 0.100000
B(  0-Mn,  1-F ) :   0.7098

Dispersion correction           -0.000505598
FINAL SINGLE POINT ENERGY     -1250.951717815969

DIPOLE MOMENT
-------------
                                X             Y             Z
Electronic contribution:     -0.00000      -0.00000      -1.79645
Nuclear contribution   :      0.00000       0.00000       0.91162
                        -----------------------------------------
Total Dipole Moment    :     -0.00000      -0.00000      -0.88484
                        -----------------------------------------
Magnitude (a.u.)       :      0.88484
Magnitude (Debye)      :      2.24907

Rotational constants in cm-1:     0.000000     0.357290     0.357290
Rotational constants in MHz :     0.000000 10711.297675 10711.297675

                             ****ORCA TERMINATED NORMALLY****
TOTAL RUN TIME: 0 days 0 hours 1 minutes 15 seconds 158 msec
