                         Program Version 4.2.0 -  RELEASE  -
|  1> #
|  2> # 27_MnCl tpssh/aug-cc-pvtz
|  3> #
|  4> ! tpssh d3bj aug-cc-pvtz def2/jk grid4 nofinalgrid
|  5>
|  6> *xyz 0 7
|  7>   Mn  0.00000000000000      0.00000000000000     -0.11585879372688
|  8>   Cl  0.00000000000000      0.00000000000000      2.11585879372688
|  9> *
| 10>
| 11> %pal
| 12> nprocs 24
| 13> end
| 14>
| 15>
| 16>                          ****END OF INPUT****

CARTESIAN COORDINATES (ANGSTROEM)
---------------------------------
  Mn     0.000000    0.000000   -0.115859
  Cl     0.000000    0.000000    2.115859

 Total Charge           Charge          ....    0
 Multiplicity           Mult            ....    7
 Number of Electrons    NEL             ....   42
 Basis Dimension        Dim             ....  143

ORBITAL ENERGIES
----------------
                 SPIN UP ORBITALS
  NO   OCC          E(Eh)            E(eV)
   0   1.0000    -235.314994     -6403.2465
   1   1.0000    -101.367793     -2758.3579
   2   1.0000     -27.257901      -741.7252
   3   1.0000     -23.306352      -634.1981
   4   1.0000     -23.306352      -634.1981
   5   1.0000     -23.303166      -634.1114
   6   1.0000      -9.346912      -254.3424
   7   1.0000      -7.091166      -192.9605
   8   1.0000      -7.089129      -192.9050
   9   1.0000      -7.089129      -192.9050
  10   1.0000      -3.286453       -89.4289
  11   1.0000      -2.153927       -58.6113
  12   1.0000      -2.153927       -58.6113
  13   1.0000      -2.145537       -58.3830
  14   1.0000      -0.758370       -20.6363
  15   1.0000      -0.384494       -10.4626
  16   1.0000      -0.366717        -9.9789
  17   1.0000      -0.366717        -9.9789
  18   1.0000      -0.362790        -9.8720
  19   1.0000      -0.362790        -9.8720
  20   1.0000      -0.306559        -8.3419
  21   1.0000      -0.283013        -7.7012
  22   1.0000      -0.283013        -7.7012
  23   1.0000      -0.192097        -5.2272
  24   0.0000      -0.052684        -1.4336
  25   0.0000      -0.052684        -1.4336
  26   0.0000      -0.003473        -0.0945
  27   0.0000      -0.000209        -0.0057
  28   0.0000       0.022205         0.6042

                 SPIN DOWN ORBITALS
  NO   OCC          E(Eh)            E(eV)
   0   1.0000    -235.312854     -6403.1883
   1   1.0000    -101.366609     -2758.3257
   2   1.0000     -27.180391      -739.6160
   3   1.0000     -23.241080      -632.4219
   4   1.0000     -23.241080      -632.4219
   5   1.0000     -23.238933      -632.3635
   6   1.0000      -9.345853      -254.3136
   7   1.0000      -7.089267      -192.9088
   8   1.0000      -7.087741      -192.8672
   9   1.0000      -7.087741      -192.8672
  10   1.0000      -3.076017       -83.7027
  11   1.0000      -1.934488       -52.6401
  12   1.0000      -1.934488       -52.6401
  13   1.0000      -1.928491       -52.4769
  14   1.0000      -0.750307       -20.4169
  15   1.0000      -0.333177        -9.0662
  16   1.0000      -0.293276        -7.9805
  17   1.0000      -0.293276        -7.9805
  18   0.0000      -0.126583        -3.4445
  19   0.0000      -0.113181        -3.0798
  20   0.0000      -0.113179        -3.0798
  21   0.0000      -0.104677        -2.8484
  22   0.0000      -0.104677        -2.8484

MULLIKEN ATOMIC CHARGES AND SPIN POPULATIONS
--------------------------------------------
   0 Mn:    0.457530    5.872777
   1 Cl:   -0.457530    0.127223
Sum of atomic charges         :   -0.0000000

LOEWDIN ATOMIC CHARGES AND SPIN POPULATIONS
-------------------------------------------
   0 Mn:    0.102833    5.729562
   1 Cl:   -0.102833    0.270438

  Mayer bond orders larger than 0.100000
B(  0-Mn,  1-Cl) :   0.9386

Dispersion correction           -0.001433256
FINAL SINGLE POINT ENERGY     -1611.324628064215

DIPOLE MOMENT
-------------
                                X             Y             Z
Electronic contribution:     -0.00000      -0.00000      -3.24358
Nuclear contribution   :      0.00000       0.00000       2.22337
                        -----------------------------------------
Total Dipole Moment    :     -0.00000      -0.00000      -1.02021
                        -----------------------------------------
Magnitude (a.u.)       :      1.02021
Magnitude (Debye)      :      2.59316

Rotational constants in cm-1:     0.000000     0.157077     0.157077
Rotational constants in MHz :     0.000000  4709.038991  4709.038991

                             ****ORCA TERMINATED NORMALLY****
TOTAL RUN TIME: 0 days 0 hours 1 minutes 50 seconds 388 msec
