                         Program Version 4.2.0 -  RELEASE  -
|  1> #
|  2> # 31_FeH tpssh/aug-cc-pvtz
|  3> #
|  4> ! tpssh d3bj aug-cc-pvtz def2/jk grid4 nofinalgrid
|  5>
|  6> *xyz 0 4
|  7>   Fe  0.00000000000000      0.00000000000000      0.22838748047068
|  8>   H   0.00000000000000      0.00000000000000      1.77161251952932
|  9> *
| 10>
| 11> %pal
| 12> nprocs 24
| 13> end
| 14>
| 15>
| 16>                          ****END OF INPUT****

CARTESIAN COORDINATES (ANGSTROEM)
---------------------------------
  Fe     0.000000    0.000000    0.228387
  H      0.000000    0.000000    1.771613

 Total Charge           Charge          ....    0
 Multiplicity           Mult            ....    4
 Number of Electrons    NEL             ....   27
 Basis Dimension        Dim             ....  116

ORBITAL ENERGIES
----------------
                 SPIN UP ORBITALS
  NO   OCC          E(Eh)            E(eV)
   0   1.0000    -255.773939     -6959.9627
   1   1.0000     -29.804513      -811.0220
   2   1.0000     -25.647616      -697.9071
   3   1.0000     -25.647616      -697.9071
   4   1.0000     -25.618663      -697.1193
   5   1.0000      -3.384444       -92.0954
   6   1.0000      -2.180697       -59.3398
   7   1.0000      -2.180697       -59.3398
   8   1.0000      -2.121274       -57.7228
   9   1.0000      -0.274544        -7.4707
  10   1.0000      -0.245846        -6.6898
  11   1.0000      -0.245846        -6.6898
  12   1.0000      -0.195767        -5.3271
  13   1.0000      -0.191808        -5.2194
  14   1.0000      -0.191808        -5.2194
  15   0.0000      -0.075598        -2.0571
  16   0.0000      -0.027225        -0.7408
  17   0.0000      -0.027225        -0.7408
  18   0.0000       0.008936         0.2432
  19   0.0000       0.020101         0.5470

                 SPIN DOWN ORBITALS
  NO   OCC          E(Eh)            E(eV)
   0   1.0000    -255.772973     -6959.9364
   1   1.0000     -29.758331      -809.7654
   2   1.0000     -25.602363      -696.6757
   3   1.0000     -25.602363      -696.6757
   4   1.0000     -25.593446      -696.4331
   5   1.0000      -3.262792       -88.7851
   6   1.0000      -2.035733       -55.3951
   7   1.0000      -2.033874       -55.3445
   8   1.0000      -2.033874       -55.3445
   9   1.0000      -0.265241        -7.2176
  10   1.0000      -0.142028        -3.8648
  11   1.0000      -0.142028        -3.8648
  12   0.0000      -0.080447        -2.1891
  13   0.0000      -0.039050        -1.0626
  14   0.0000      -0.039046        -1.0625
  15   0.0000      -0.015348        -0.4177
  16   0.0000      -0.007813        -0.2126

MULLIKEN ATOMIC CHARGES AND SPIN POPULATIONS
--------------------------------------------
   0 Fe:    0.036651    3.149233
   1 H :   -0.036651   -0.149233
Sum of atomic charges         :   -0.0000000

LOEWDIN ATOMIC CHARGES AND SPIN POPULATIONS
-------------------------------------------
   0 Fe:    0.689247    3.007860
   1 H :   -0.689247   -0.007860

  Mayer bond orders larger than 0.100000
B(  0-Fe,  1-H ) :   1.0094

Dispersion correction           -0.000428653
FINAL SINGLE POINT ENERGY     -1264.283993544964

DIPOLE MOMENT
-------------
                                X             Y             Z
Electronic contribution:     -0.00000      -0.00000      -2.60925
Nuclear contribution   :      0.00000       0.00000       1.52035
                        -----------------------------------------
Total Dipole Moment    :     -0.00000      -0.00000      -1.08890
                        -----------------------------------------
Magnitude (a.u.)       :      1.08890
Magnitude (Debye)      :      2.76777

Rotational constants in cm-1:     0.000000     7.149016     7.149016
Rotational constants in MHz :     0.000000 214322.097628 214322.097628

                             ****ORCA TERMINATED NORMALLY****
TOTAL RUN TIME: 0 days 0 hours 1 minutes 21 seconds 866 msec
