                         Program Version 4.2.0 -  RELEASE  -
|  1> #
|  2> # 37_CoH tpssh/aug-cc-pvtz
|  3> #
|  4> ! tpssh d3bj aug-cc-pvtz def2/jk grid4 nofinalgrid
|  5>
|  6> *xyz 0 3
|  7>   Co  0.00000000000000      0.00000000000000      0.23964953556340
|  8>   H   0.00000000000000      0.00000000000000      1.76035046443660
|  9> *
| 10>
| 11> %pal
| 12> nprocs 24
| 13> end
| 14>
| 15>
| 16>                          ****END OF INPUT****

CARTESIAN COORDINATES (ANGSTROEM)
---------------------------------
  Co     0.000000    0.000000    0.239650
  H      0.000000    0.000000    1.760350

 Total Charge           Charge          ....    0
 Multiplicity           Mult            ....    3
 Number of Electrons    NEL             ....   28
 Basis Dimension        Dim             ....  116

ORBITAL ENERGIES
----------------
                 SPIN UP ORBITALS
  NO   OCC          E(Eh)            E(eV)
   0   1.0000    -277.221069     -7543.5688
   1   1.0000     -32.611375      -887.4006
   2   1.0000     -28.227149      -768.0998
   3   1.0000     -28.227149      -768.0998
   4   1.0000     -28.226161      -768.0729
   5   1.0000      -3.646749       -99.2331
   6   1.0000      -2.331081       -63.4319
   7   1.0000      -2.331026       -63.4304
   8   1.0000      -2.331026       -63.4304
   9   1.0000      -0.286513        -7.7964
  10   1.0000      -0.239133        -6.5071
  11   1.0000      -0.204724        -5.5708
  12   1.0000      -0.200677        -5.4607
  13   1.0000      -0.200677        -5.4607
  14   1.0000      -0.197475        -5.3736
  15   0.0000      -0.078472        -2.1353
  16   0.0000      -0.020515        -0.5582
  17   0.0000      -0.020515        -0.5582
  18   0.0000       0.010737         0.2922
  19   0.0000       0.021956         0.5975

                 SPIN DOWN ORBITALS
  NO   OCC          E(Eh)            E(eV)
   0   1.0000    -277.220266     -7543.5469
   1   1.0000     -32.579420      -886.5311
   2   1.0000     -28.202289      -767.4233
   3   1.0000     -28.198734      -767.3266
   4   1.0000     -28.198734      -767.3266
   5   1.0000      -3.563660       -96.9721
   6   1.0000      -2.247007       -61.1442
   7   1.0000      -2.243190       -61.0403
   8   1.0000      -2.243190       -61.0403
   9   1.0000      -0.271739        -7.3944
  10   1.0000      -0.167330        -4.5533
  11   1.0000      -0.167330        -4.5533
  12   1.0000      -0.165408        -4.5010
  13   0.0000      -0.085746        -2.3333
  14   0.0000      -0.034456        -0.9376
  15   0.0000      -0.027060        -0.7363
  16   0.0000      -0.006513        -0.1772
  17   0.0000      -0.006513        -0.1772

MULLIKEN ATOMIC CHARGES AND SPIN POPULATIONS
--------------------------------------------
   0 Co:    0.031696    2.110341
   1 H :   -0.031696   -0.110341
Sum of atomic charges         :   -0.0000000

LOEWDIN ATOMIC CHARGES AND SPIN POPULATIONS
-------------------------------------------
   0 Co:    0.613915    2.000300
   1 H :   -0.613915   -0.000300

  Mayer bond orders larger than 0.100000
B(  0-Co,  1-H ) :   1.0347

Dispersion correction           -0.000454872
FINAL SINGLE POINT ENERGY     -1383.368459623970

DIPOLE MOMENT
-------------
                                X             Y             Z
Electronic contribution:     -0.00000      -0.00000      -2.64090
Nuclear contribution   :      0.00000       0.00000       1.52052
                        -----------------------------------------
Total Dipole Moment    :     -0.00000      -0.00000      -1.12038
                        -----------------------------------------
Magnitude (a.u.)       :      1.12038
Magnitude (Debye)      :      2.84778

Rotational constants in cm-1:     0.000000     7.355540     7.355540
Rotational constants in MHz :     0.000000 220513.537195 220513.537195

                             ****ORCA TERMINATED NORMALLY****
TOTAL RUN TIME: 0 days 0 hours 1 minutes 30 seconds 694 msec
