                         Program Version 4.2.0 -  RELEASE  -
|  1> #
|  2> # 38_CoF tpssh/aug-cc-pvtz
|  3> #
|  4> ! tpssh d3bj aug-cc-pvtz def2/jk grid4 nofinalgrid
|  5>
|  6> *xyz 0 3
|  7>   Co  0.00000000000000      0.00000000000000      0.12338928235446
|  8>   F   0.00000000000000      0.00000000000000      1.87661071764554
|  9> *
| 10>
| 11> %pal
| 12> nprocs 24
| 13> end
| 14>
| 15>
| 16>                          ****END OF INPUT****

CARTESIAN COORDINATES (ANGSTROEM)
---------------------------------
  Co     0.000000    0.000000    0.123389
  F      0.000000    0.000000    1.876611

 Total Charge           Charge          ....    0
 Multiplicity           Mult            ....    3
 Number of Electrons    NEL             ....   36
 Basis Dimension        Dim             ....  139

ORBITAL ENERGIES
----------------
                 SPIN UP ORBITALS
  NO   OCC          E(Eh)            E(eV)
   0   1.0000    -277.271087     -7544.9298
   1   1.0000     -32.666846      -888.9101
   2   1.0000     -28.285459      -769.6865
   3   1.0000     -28.282623      -769.6093
   4   1.0000     -28.276658      -769.4470
   5   1.0000     -24.517992      -667.1685
   6   1.0000      -3.708445      -100.9119
   7   1.0000      -2.400295       -65.3153
   8   1.0000      -2.396083       -65.2007
   9   1.0000      -2.380901       -64.7876
  10   1.0000      -1.052719       -28.6459
  11   1.0000      -0.377333       -10.2677
  12   1.0000      -0.349187        -9.5019
  13   1.0000      -0.336131        -9.1466
  14   1.0000      -0.281234        -7.6528
  15   1.0000      -0.265089        -7.2134
  16   1.0000      -0.245827        -6.6893
  17   1.0000      -0.229476        -6.2444
  18   1.0000      -0.227691        -6.1958
  19   0.0000      -0.123151        -3.3511
  20   0.0000      -0.014078        -0.3831
  21   0.0000      -0.011533        -0.3138
  22   0.0000       0.010607         0.2886
  23   0.0000       0.017278         0.4702

                 SPIN DOWN ORBITALS
  NO   OCC          E(Eh)            E(eV)
   0   1.0000    -277.270598     -7544.9166
   1   1.0000     -32.628560      -887.8683
   2   1.0000     -28.252223      -768.7821
   3   1.0000     -28.249669      -768.7126
   4   1.0000     -28.245889      -768.6097
   5   1.0000     -24.516247      -667.1210
   6   1.0000      -3.610652       -98.2508
   7   1.0000      -2.295398       -62.4610
   8   1.0000      -2.289254       -62.2938
   9   1.0000      -2.287196       -62.2378
  10   1.0000      -1.048784       -28.5389
  11   1.0000      -0.363880        -9.9017
  12   1.0000      -0.330047        -8.9810
  13   1.0000      -0.320506        -8.7214
  14   1.0000      -0.210263        -5.7215
  15   1.0000      -0.196826        -5.3559
  16   1.0000      -0.190030        -5.1710
  17   0.0000      -0.110702        -3.0123
  18   0.0000      -0.073790        -2.0079
  19   0.0000      -0.061786        -1.6813
  20   0.0000      -0.011546        -0.3142
  21   0.0000      -0.011042        -0.3005

MULLIKEN ATOMIC CHARGES AND SPIN POPULATIONS
--------------------------------------------
   0 Co:    0.619070    1.951804
   1 F :   -0.619070    0.048196
Sum of atomic charges         :   -0.0000000

LOEWDIN ATOMIC CHARGES AND SPIN POPULATIONS
-------------------------------------------
   0 Co:    0.436177    1.943758
   1 F :   -0.436177    0.056242

  Mayer bond orders larger than 0.100000
B(  0-Co,  1-F ) :   0.7813

Dispersion correction           -0.000486196
FINAL SINGLE POINT ENERGY     -1482.696033415258

DIPOLE MOMENT
-------------
                                X             Y             Z
Electronic contribution:      0.00000      -0.00000      -2.55989
Nuclear contribution   :      0.00000       0.00000       0.74078
                        -----------------------------------------
Total Dipole Moment    :      0.00000      -0.00000      -1.81911
                        -----------------------------------------
Magnitude (a.u.)       :      1.81911
Magnitude (Debye)      :      4.62380

Rotational constants in cm-1:     0.000000     0.381744     0.381744
Rotational constants in MHz :     0.000000 11444.406260 11444.406260

                             ****ORCA TERMINATED NORMALLY****
TOTAL RUN TIME: 0 days 0 hours 5 minutes 39 seconds 778 msec
