                         Program Version 4.2.0 -  RELEASE  -
|  1> #
|  2> # 39_CoCl tpssh/aug-cc-pvtz
|  3> #
|  4> ! tpssh d3bj aug-cc-pvtz def2/jk grid4 nofinalgrid
|  5>
|  6> *xyz 0 3
|  7>   Co  0.00000000000000      0.00000000000000     -0.04491550120186
|  8>   Cl  0.00000000000000      0.00000000000000      2.04491550120186
|  9> *
| 10>
| 11> %pal
| 12> nprocs 24
| 13> end
| 14>
| 15>
| 16>                          ****END OF INPUT****

CARTESIAN COORDINATES (ANGSTROEM)
---------------------------------
  Co     0.000000    0.000000   -0.044916
  Cl     0.000000    0.000000    2.044916

 Total Charge           Charge          ....    0
 Multiplicity           Mult            ....    3
 Number of Electrons    NEL             ....   44
 Basis Dimension        Dim             ....  143

ORBITAL ENERGIES
----------------
                 SPIN UP ORBITALS
  NO   OCC          E(Eh)            E(eV)
   0   1.0000    -277.267437     -7544.8305
   1   1.0000    -101.358383     -2758.1018
   2   1.0000     -32.660015      -888.7242
   3   1.0000     -28.278667      -769.5017
   4   1.0000     -28.274060      -769.3763
   5   1.0000     -28.272687      -769.3389
   6   1.0000      -9.336516      -254.0595
   7   1.0000      -7.081608      -192.7003
   8   1.0000      -7.078706      -192.6214
   9   1.0000      -7.077508      -192.5888
  10   1.0000      -3.701087      -100.7117
  11   1.0000      -2.389010       -65.0083
  12   1.0000      -2.388430       -64.9925
  13   1.0000      -2.379044       -64.7371
  14   1.0000      -0.741957       -20.1897
  15   1.0000      -0.340219        -9.2578
  16   1.0000      -0.316384        -8.6092
  17   1.0000      -0.297207        -8.0874
  18   1.0000      -0.280164        -7.6236
  19   1.0000      -0.251585        -6.8460
  20   1.0000      -0.243656        -6.6302
  21   1.0000      -0.230269        -6.2659
  22   1.0000      -0.225980        -6.1492
  23   0.0000      -0.121121        -3.2959
  24   0.0000      -0.017005        -0.4627
  25   0.0000      -0.015096        -0.4108
  26   0.0000       0.009807         0.2669
  27   0.0000       0.012867         0.3501

                 SPIN DOWN ORBITALS
  NO   OCC          E(Eh)            E(eV)
   0   1.0000    -277.266895     -7544.8158
   1   1.0000    -101.358251     -2758.0982
   2   1.0000     -32.623803      -887.7388
   3   1.0000     -28.247001      -768.6400
   4   1.0000     -28.244249      -768.5651
   5   1.0000     -28.242494      -768.5173
   6   1.0000      -9.336403      -254.0564
   7   1.0000      -7.081985      -192.7106
   8   1.0000      -7.077800      -192.5967
   9   1.0000      -7.077513      -192.5889
  10   1.0000      -3.607910       -98.1762
  11   1.0000      -2.293007       -62.3959
  12   1.0000      -2.286654       -62.2230
  13   1.0000      -2.285533       -62.1925
  14   1.0000      -0.740818       -20.1587
  15   1.0000      -0.329042        -8.9537
  16   1.0000      -0.288959        -7.8630
  17   1.0000      -0.280166        -7.6237
  18   1.0000      -0.210344        -5.7238
  19   1.0000      -0.198194        -5.3931
  20   1.0000      -0.197129        -5.3642
  21   0.0000      -0.109063        -2.9678
  22   0.0000      -0.075675        -2.0592
  23   0.0000      -0.066815        -1.8181
  24   0.0000      -0.012334        -0.3356
  25   0.0000      -0.011061        -0.3010

MULLIKEN ATOMIC CHARGES AND SPIN POPULATIONS
--------------------------------------------
   0 Co:    0.494390    1.985842
   1 Cl:   -0.494390    0.014158
Sum of atomic charges         :   -0.0000000

LOEWDIN ATOMIC CHARGES AND SPIN POPULATIONS
-------------------------------------------
   0 Co:    0.070367    1.953182
   1 Cl:   -0.070367    0.046818

  Mayer bond orders larger than 0.100000
B(  0-Co,  1-Cl) :   1.0908

Dispersion correction           -0.001370795
FINAL SINGLE POINT ENERGY     -1843.084732169459

DIPOLE MOMENT
-------------
                                X             Y             Z
Electronic contribution:      0.00000       0.00000      -3.80241
Nuclear contribution   :      0.00000       0.00000       1.86529
                        -----------------------------------------
Total Dipole Moment    :      0.00000       0.00000      -1.93712
                        -----------------------------------------
Magnitude (a.u.)       :      1.93712
Magnitude (Debye)      :      4.92377

Rotational constants in cm-1:     0.000000     0.174373     0.174373
Rotational constants in MHz :     0.000000  5227.567081  5227.567081

                             ****ORCA TERMINATED NORMALLY****
TOTAL RUN TIME: 0 days 0 hours 4 minutes 15 seconds 780 msec
