                         Program Version 4.2.0 -  RELEASE  -
|  1> #
|  2> # 42_CoS tpssh/aug-cc-pvtz
|  3> #
|  4> ! tpssh d3bj aug-cc-pvtz def2/jk grid4 nofinalgrid
|  5>
|  6> *xyz 0 4
|  7>   Co  0.00000000000000      0.00000000000000      0.00920129654260
|  8>   S   0.00000000000000      0.00000000000000      1.99079870345740
|  9> *
| 10>
| 11> %pal
| 12> nprocs 24
| 13> end
| 14>
| 15>
| 16>                          ****END OF INPUT****

CARTESIAN COORDINATES (ANGSTROEM)
---------------------------------
  Co     0.000000    0.000000    0.009201
  S      0.000000    0.000000    1.990799

 Total Charge           Charge          ....    0
 Multiplicity           Mult            ....    4
 Number of Electrons    NEL             ....   43
 Basis Dimension        Dim             ....  143

ORBITAL ENERGIES
----------------
                 SPIN UP ORBITALS
  NO   OCC          E(Eh)            E(eV)
   0   1.0000    -277.288401     -7545.4010
   1   1.0000     -88.708537     -2413.8820
   2   1.0000     -32.685544      -889.4189
   3   1.0000     -28.333384      -770.9906
   4   1.0000     -28.283582      -769.6354
   5   1.0000     -28.283582      -769.6354
   6   1.0000      -7.833378      -213.1571
   7   1.0000      -5.781628      -157.3261
   8   1.0000      -5.781628      -157.3261
   9   1.0000      -5.780786      -157.3032
  10   1.0000      -3.722682      -101.2993
  11   1.0000      -2.475574       -67.3638
  12   1.0000      -2.370182       -64.4959
  13   1.0000      -2.370182       -64.4959
  14   1.0000      -0.631852       -17.1936
  15   1.0000      -0.340248        -9.2586
  16   1.0000      -0.323881        -8.8133
  17   1.0000      -0.323881        -8.8133
  18   1.0000      -0.246623        -6.7110
  19   1.0000      -0.238516        -6.4903
  20   1.0000      -0.238515        -6.4903
  21   1.0000      -0.218172        -5.9368
  22   1.0000      -0.218172        -5.9368
  23   0.0000      -0.118902        -3.2355
  24   0.0000      -0.015711        -0.4275
  25   0.0000      -0.015711        -0.4275
  26   0.0000       0.007435         0.2023
  27   0.0000       0.011241         0.3059

                 SPIN DOWN ORBITALS
  NO   OCC          E(Eh)            E(eV)
   0   1.0000    -277.287308     -7545.3713
   1   1.0000     -88.705343     -2413.7951
   2   1.0000     -32.646275      -888.3503
   3   1.0000     -28.286170      -769.7058
   4   1.0000     -28.257649      -768.9297
   5   1.0000     -28.257649      -768.9297
   6   1.0000      -7.830353      -213.0747
   7   1.0000      -5.779387      -157.2651
   8   1.0000      -5.775551      -157.1607
   9   1.0000      -5.775551      -157.1607
  10   1.0000      -3.624610       -98.6307
  11   1.0000      -2.319851       -63.1264
  12   1.0000      -2.297858       -62.5279
  13   1.0000      -2.297858       -62.5279
  14   1.0000      -0.607957       -16.5433
  15   1.0000      -0.282370        -7.6837
  16   1.0000      -0.235332        -6.4037
  17   1.0000      -0.235332        -6.4037
  18   1.0000      -0.184182        -5.0118
  19   1.0000      -0.184181        -5.0118
  20   0.0000      -0.141023        -3.8374
  21   0.0000      -0.115649        -3.1470
  22   0.0000      -0.115649        -3.1470
  23   0.0000      -0.087807        -2.3894
  24   0.0000       0.001051         0.0286

MULLIKEN ATOMIC CHARGES AND SPIN POPULATIONS
--------------------------------------------
   0 Co:    0.282620    2.260635
   1 S :   -0.282620    0.739365
Sum of atomic charges         :   -0.0000000

LOEWDIN ATOMIC CHARGES AND SPIN POPULATIONS
-------------------------------------------
   0 Co:    0.028910    2.322346
   1 S :   -0.028910    0.677654

  Mayer bond orders larger than 0.100000
B(  0-Co,  1-S ) :   2.2636

Dispersion correction           -0.001553825
FINAL SINGLE POINT ENERGY     -1781.016377365429

DIPOLE MOMENT
-------------
                                X             Y             Z
Electronic contribution:     -0.00000       0.00000      -5.14932
Nuclear contribution   :      0.00000       0.00000       3.17962
                        -----------------------------------------
Total Dipole Moment    :     -0.00000       0.00000      -1.96970
                        -----------------------------------------
Magnitude (a.u.)       :      1.96970
Magnitude (Debye)      :      5.00659

Rotational constants in cm-1:     0.000000     0.206757     0.206757
Rotational constants in MHz :     0.000000  6198.412278  6198.412278

                             ****ORCA TERMINATED NORMALLY****
TOTAL RUN TIME: 0 days 0 hours 2 minutes 42 seconds 811 msec
