                         Program Version 4.2.0 -  RELEASE  -
|  1> #
|  2> # 43_NiH tpssh/aug-cc-pvtz
|  3> #
|  4> ! tpssh d3bj aug-cc-pvtz def2/jk grid4 nofinalgrid
|  5>
|  6> *xyz 0 2
|  7>   Ni  0.00000000000000      0.00000000000000      0.25339129346416
|  8>   H   0.00000000000000      0.00000000000000      1.74660870653584
|  9> *
| 10>
| 11> %pal
| 12> nprocs 24
| 13> end
| 14>
| 15>
| 16>                          ****END OF INPUT****

CARTESIAN COORDINATES (ANGSTROEM)
---------------------------------
  Ni     0.000000    0.000000    0.253391
  H      0.000000    0.000000    1.746609

 Total Charge           Charge          ....    0
 Multiplicity           Mult            ....    2
 Number of Electrons    NEL             ....   29
 Basis Dimension        Dim             ....  116

ORBITAL ENERGIES
----------------
                 SPIN UP ORBITALS
  NO   OCC          E(Eh)            E(eV)
   0   1.0000    -299.530674     -8150.6440
   1   1.0000     -35.536224      -966.9898
   2   1.0000     -30.954601      -842.3175
   3   1.0000     -30.922747      -841.4507
   4   1.0000     -30.922747      -841.4507
   5   1.0000      -3.917821      -106.6093
   6   1.0000      -2.550444       -69.4011
   7   1.0000      -2.484577       -67.6088
   8   1.0000      -2.484577       -67.6088
   9   1.0000      -0.300760        -8.1841
  10   1.0000      -0.214716        -5.8427
  11   1.0000      -0.210491        -5.7277
  12   1.0000      -0.210491        -5.7277
  13   1.0000      -0.186588        -5.0773
  14   1.0000      -0.186588        -5.0773
  15   0.0000      -0.079929        -2.1750
  16   0.0000      -0.014887        -0.4051
  17   0.0000      -0.014887        -0.4051
  18   0.0000       0.012395         0.3373
  19   0.0000       0.022215         0.6045

                 SPIN DOWN ORBITALS
  NO   OCC          E(Eh)            E(eV)
   0   1.0000    -299.530158     -8150.6300
   1   1.0000     -35.520617      -966.5651
   2   1.0000     -30.933391      -841.7404
   3   1.0000     -30.913753      -841.2060
   4   1.0000     -30.913753      -841.2060
   5   1.0000      -3.879081      -105.5552
   6   1.0000      -2.475214       -67.3540
   7   1.0000      -2.462571       -67.0100
   8   1.0000      -2.462571       -67.0100
   9   1.0000      -0.279512        -7.6059
  10   1.0000      -0.199370        -5.4251
  11   1.0000      -0.199370        -5.4251
  12   1.0000      -0.160218        -4.3597
  13   1.0000      -0.160218        -4.3597
  14   0.0000      -0.097522        -2.6537
  15   0.0000      -0.056943        -1.5495
  16   0.0000      -0.005007        -0.1362
  17   0.0000      -0.005007        -0.1362
  18   0.0000       0.017048         0.4639

MULLIKEN ATOMIC CHARGES AND SPIN POPULATIONS
--------------------------------------------
   0 Ni:    0.022697    1.047893
   1 H :   -0.022697   -0.047893
Sum of atomic charges         :    0.0000000

LOEWDIN ATOMIC CHARGES AND SPIN POPULATIONS
-------------------------------------------
   0 Ni:    0.557637    0.977482
   1 H :   -0.557637    0.022518

  Mayer bond orders larger than 0.100000
B(  0-Ni,  1-H ) :   1.0541

Dispersion correction           -0.000477672
FINAL SINGLE POINT ENERGY     -1508.924545326719

DIPOLE MOMENT
-------------
                                X             Y             Z
Electronic contribution:     -0.00000      -0.00000      -2.55769
Nuclear contribution   :      0.00000       0.00000       1.44028
                        -----------------------------------------
Total Dipole Moment    :     -0.00000      -0.00000      -1.11741
                        -----------------------------------------
Magnitude (a.u.)       :      1.11741
Magnitude (Debye)      :      2.84022

Rotational constants in cm-1:     0.000000     7.629300     7.629300
Rotational constants in MHz :     0.000000 228720.664008 228720.664008

                             ****ORCA TERMINATED NORMALLY****
TOTAL RUN TIME: 0 days 0 hours 1 minutes 39 seconds 825 msec
