                         Program Version 4.2.0 -  RELEASE  -
|  1> #
|  2> # 45_NiCl tpssh/aug-cc-pvtz
|  3> #
|  4> ! tpssh d3bj aug-cc-pvtz def2/jk grid4 nofinalgrid
|  5>
|  6> *xyz 0 2
|  7>   Ni  0.00000000000000      0.00000000000000     -0.04672403924217
|  8>   Cl  0.00000000000000      0.00000000000000      2.04672403924217
|  9> *
| 10>
| 11> %pal
| 12> nprocs 24
| 13> end
| 14>
| 15>
| 16>                          ****END OF INPUT****

CARTESIAN COORDINATES (ANGSTROEM)
---------------------------------
  Ni     0.000000    0.000000   -0.046724
  Cl     0.000000    0.000000    2.046724

 Total Charge           Charge          ....    0
 Multiplicity           Mult            ....    2
 Number of Electrons    NEL             ....   45
 Basis Dimension        Dim             ....  143

ORBITAL ENERGIES
----------------
                 SPIN UP ORBITALS
  NO   OCC          E(Eh)            E(eV)
   0   1.0000    -299.565225     -8151.5842
   1   1.0000    -101.349363     -2757.8564
   2   1.0000     -35.569056      -967.8832
   3   1.0000     -30.987421      -843.2106
   4   1.0000     -30.955776      -842.3495
   5   1.0000     -30.955776      -842.3495
   6   1.0000      -9.327615      -253.8173
   7   1.0000      -7.073199      -192.4715
   8   1.0000      -7.068841      -192.3529
   9   1.0000      -7.068841      -192.3529
  10   1.0000      -3.956215      -107.6541
  11   1.0000      -2.590664       -70.4956
  12   1.0000      -2.522937       -68.6526
  13   1.0000      -2.522937       -68.6526
  14   1.0000      -0.733518       -19.9600
  15   1.0000      -0.342649        -9.3239
  16   1.0000      -0.290286        -7.8991
  17   1.0000      -0.290286        -7.8991
  18   1.0000      -0.260240        -7.0815
  19   1.0000      -0.224778        -6.1165
  20   1.0000      -0.224778        -6.1165
  21   1.0000      -0.223884        -6.0922
  22   1.0000      -0.223883        -6.0922
  23   0.0000      -0.119717        -3.2577
  24   0.0000      -0.012987        -0.3534
  25   0.0000      -0.012987        -0.3534
  26   0.0000       0.010204         0.2777
  27   0.0000       0.013649         0.3714

                 SPIN DOWN ORBITALS
  NO   OCC          E(Eh)            E(eV)
   0   1.0000    -299.564807     -8151.5728
   1   1.0000    -101.349532     -2757.8610
   2   1.0000     -35.551677      -967.4103
   3   1.0000     -30.963609      -842.5626
   4   1.0000     -30.945791      -842.0778
   5   1.0000     -30.945791      -842.0778
   6   1.0000      -9.327755      -253.8211
   7   1.0000      -7.073561      -192.4814
   8   1.0000      -7.068996      -192.3571
   9   1.0000      -7.068996      -192.3571
  10   1.0000      -3.913166      -106.4827
  11   1.0000      -2.508703       -68.2653
  12   1.0000      -2.497540       -67.9615
  13   1.0000      -2.497540       -67.9615
  14   1.0000      -0.733985       -19.9727
  15   1.0000      -0.321398        -8.7457
  16   1.0000      -0.286498        -7.7960
  17   1.0000      -0.286498        -7.7960
  18   1.0000      -0.216451        -5.8899
  19   1.0000      -0.216451        -5.8899
  20   1.0000      -0.196069        -5.3353
  21   1.0000      -0.196068        -5.3353
  22   0.0000      -0.126933        -3.4540
  23   0.0000      -0.091841        -2.4991
  24   0.0000      -0.007424        -0.2020
  25   0.0000      -0.007424        -0.2020
  26   0.0000       0.012604         0.3430

MULLIKEN ATOMIC CHARGES AND SPIN POPULATIONS
--------------------------------------------
   0 Ni:    0.510920    0.978048
   1 Cl:   -0.510920    0.021952
Sum of atomic charges         :   -0.0000000

LOEWDIN ATOMIC CHARGES AND SPIN POPULATIONS
-------------------------------------------
   0 Ni:    0.095784    0.979656
   1 Cl:   -0.095784    0.020344

  Mayer bond orders larger than 0.100000
B(  0-Ni,  1-Cl) :   0.9348

Dispersion correction           -0.001440853
FINAL SINGLE POINT ENERGY     -1968.635204858876

DIPOLE MOMENT
-------------
                                X             Y             Z
Electronic contribution:     -0.00000      -0.00000      -2.23207
Nuclear contribution   :      0.00000       0.00000       0.21916
                        -----------------------------------------
Total Dipole Moment    :     -0.00000      -0.00000      -2.01291
                        -----------------------------------------
Magnitude (a.u.)       :      2.01291
Magnitude (Debye)      :      5.11641

Rotational constants in cm-1:     0.000000     0.174027     0.174027
Rotational constants in MHz :     0.000000  5217.185595  5217.185595

                             ****ORCA TERMINATED NORMALLY****
TOTAL RUN TIME: 0 days 0 hours 1 minutes 58 seconds 842 msec
