                         Program Version 4.2.0 -  RELEASE  -
|  1> #
|  2> # 46_NiBr tpssh/aug-cc-pvtz
|  3> #
|  4> ! tpssh d3bj aug-cc-pvtz def2/jk grid4 nofinalgrid
|  5>
|  6> *xyz 0 2
|  7>   Ni  0.00000000000000      0.00000000000000     -0.09144593844003
|  8>   Br  0.00000000000000      0.00000000000000      2.09144593844003
|  9> *
| 10>
| 11> %pal
| 12> nprocs 24
| 13> end
| 14>
| 15>
| 16>                          ****END OF INPUT****

CARTESIAN COORDINATES (ANGSTROEM)
---------------------------------
  Ni     0.000000    0.000000   -0.091446
  Br     0.000000    0.000000    2.091446

 Total Charge           Charge          ....    0
 Multiplicity           Mult            ....    2
 Number of Electrons    NEL             ....   63
 Basis Dimension        Dim             ....  152

ORBITAL ENERGIES
----------------
                 SPIN UP ORBITALS
  NO   OCC          E(Eh)            E(eV)
   0   1.0000    -482.531727    -13130.3558
   1   1.0000    -299.581418     -8152.0248
   2   1.0000     -62.244924     -1693.7705
   3   1.0000     -56.029694     -1524.6455
   4   1.0000     -56.028620     -1524.6163
   5   1.0000     -56.028009     -1524.5996
   6   1.0000     -35.589849      -968.4490
   7   1.0000     -30.997663      -843.4893
   8   1.0000     -30.995894      -843.4412
   9   1.0000     -30.966124      -842.6311
  10   1.0000      -8.587267      -233.6714
  11   1.0000      -6.403597      -174.2507
  12   1.0000      -6.399705      -174.1448
  13   1.0000      -6.397960      -174.0974
  14   1.0000      -3.976798      -108.2142
  15   1.0000      -2.592074       -70.5339
  16   1.0000      -2.582190       -70.2650
  17   1.0000      -2.528774       -68.8114
  18   1.0000      -2.527938       -68.7887
  19   1.0000      -2.526701       -68.7550
  20   1.0000      -2.523554       -68.6694
  21   1.0000      -2.523440       -68.6663
  22   1.0000      -2.522518       -68.6412
  23   1.0000      -0.710429       -19.3318
  24   1.0000      -0.332548        -9.0491
  25   1.0000      -0.327108        -8.9011
  26   1.0000      -0.286057        -7.7840
  27   1.0000      -0.253656        -6.9023
  28   1.0000      -0.252267        -6.8645
  29   1.0000      -0.243387        -6.6229
  30   1.0000      -0.232128        -6.3165
  31   1.0000      -0.226207        -6.1554
  32   0.0000      -0.118394        -3.2217
  33   0.0000      -0.014139        -0.3847
  34   0.0000      -0.009180        -0.2498
  35   0.0000       0.010534         0.2866
  36   0.0000       0.011881         0.3233

                 SPIN DOWN ORBITALS
  NO   OCC          E(Eh)            E(eV)
   0   1.0000    -482.531562    -13130.3513
   1   1.0000    -299.581178     -8152.0183
   2   1.0000     -62.244862     -1693.7688
   3   1.0000     -56.029662     -1524.6446
   4   1.0000     -56.028275     -1524.6069
   5   1.0000     -56.027948     -1524.5980
   6   1.0000     -35.569891      -967.9059
   7   1.0000     -30.975309      -842.8810
   8   1.0000     -30.974492      -842.8588
   9   1.0000     -30.959524      -842.4515
  10   1.0000      -8.587031      -233.6650
  11   1.0000      -6.403553      -174.2495
  12   1.0000      -6.399033      -174.1265
  13   1.0000      -6.397831      -174.0938
  14   1.0000      -3.927950      -106.8849
  15   1.0000      -2.529964       -68.8438
  16   1.0000      -2.527565       -68.7786
  17   1.0000      -2.526619       -68.7528
  18   1.0000      -2.523420       -68.6657
  19   1.0000      -2.523083       -68.6566
  20   1.0000      -2.522878       -68.6510
  21   1.0000      -2.517921       -68.5161
  22   1.0000      -2.503009       -68.1103
  23   1.0000      -0.708034       -19.2666
  24   1.0000      -0.327853        -8.9213
  25   1.0000      -0.278500        -7.5784
  26   1.0000      -0.269464        -7.3325
  27   1.0000      -0.244204        -6.6451
  28   1.0000      -0.219340        -5.9685
  29   1.0000      -0.209960        -5.7133
  30   1.0000      -0.202731        -5.5166
  31   0.0000      -0.118411        -3.2221
  32   0.0000      -0.111079        -3.0226
  33   0.0000      -0.012762        -0.3473
  34   0.0000      -0.011198        -0.3047
  35   0.0000       0.009988         0.2718

MULLIKEN ATOMIC CHARGES AND SPIN POPULATIONS
--------------------------------------------
   0 Ni:    0.460257    0.944034
   1 Br:   -0.460257    0.055966
Sum of atomic charges         :   -0.0000000

LOEWDIN ATOMIC CHARGES AND SPIN POPULATIONS
-------------------------------------------
   0 Ni:   -0.059943    0.924647
   1 Br:    0.059943    0.075353

  Mayer bond orders larger than 0.100000
B(  0-Ni,  1-Br) :   1.1892

Dispersion correction           -0.001628236
FINAL SINGLE POINT ENERGY     -4082.524372861769

DIPOLE MOMENT
-------------
                                X             Y             Z
Electronic contribution:      0.00000      -0.00000       3.64025
Nuclear contribution   :      0.00000       0.00000      -5.43759
                        -----------------------------------------
Total Dipole Moment    :      0.00000      -0.00000      -1.79733
                        -----------------------------------------
Magnitude (a.u.)       :      1.79733
Magnitude (Debye)      :      4.56846

Rotational constants in cm-1:     0.000000     0.104547     0.104547
Rotational constants in MHz :     0.000000  3134.234625  3134.234625

                             ****ORCA TERMINATED NORMALLY****
TOTAL RUN TIME: 0 days 0 hours 4 minutes 2 seconds 960 msec
