                         Program Version 4.2.0 -  RELEASE  -
|  1> #
|  2> # 50_CuF tpssh/aug-cc-pvtz
|  3> #
|  4> ! tpssh d3bj aug-cc-pvtz def2/jk grid4 nofinalgrid
|  5>
|  6> *xyz 0 1
|  7>   Cu  0.00000000000000      0.00000000000000      0.12224745624860
|  8>   F   0.00000000000000      0.00000000000000      1.87775254375140
|  9> *
| 10>
| 11> %pal
| 12> nprocs 24
| 13> end
| 14>
| 15>
| 16>                          ****END OF INPUT****

CARTESIAN COORDINATES (ANGSTROEM)
---------------------------------
  Cu     0.000000    0.000000    0.122247
  F      0.000000    0.000000    1.877753

 Total Charge           Charge          ....    0
 Multiplicity           Mult            ....    1
 Number of Electrons    NEL             ....   38
 Basis Dimension        Dim             ....  139

ORBITAL ENERGIES
----------------

  NO   OCC          E(Eh)            E(eV)
   0   2.0000    -322.765649     -8782.8998
   1   2.0000     -38.641175     -1051.4798
   2   2.0000     -33.816867      -920.2037
   3   2.0000     -33.816867      -920.2037
   4   2.0000     -33.816212      -920.1859
   5   2.0000     -24.505850      -666.8381
   6   2.0000      -4.265076      -116.0586
   7   2.0000      -2.759639       -75.0936
   8   2.0000      -2.754099       -74.9428
   9   2.0000      -2.754099       -74.9428
  10   2.0000      -1.037894       -28.2425
  11   2.0000      -0.365485        -9.9453
  12   2.0000      -0.325885        -8.8678
  13   2.0000      -0.325885        -8.8678
  14   2.0000      -0.263799        -7.1783
  15   2.0000      -0.263798        -7.1783
  16   2.0000      -0.244380        -6.6499
  17   2.0000      -0.244380        -6.6499
  18   2.0000      -0.235657        -6.4125
  19   0.0000      -0.123798        -3.3687
  20   0.0000      -0.008649        -0.2354
  21   0.0000      -0.008649        -0.2354
  22   0.0000       0.011623         0.3163
  23   0.0000       0.020287         0.5520

MULLIKEN ATOMIC CHARGES
-----------------------
   0 Cu:    0.669754
   1 F :   -0.669754
Sum of atomic charges:    0.0000000

LOEWDIN ATOMIC CHARGES
----------------------
   0 Cu:    0.421048
   1 F :   -0.421048

  Mayer bond orders larger than 0.100000
B(  0-Cu,  1-F ) :   0.6519

Dispersion correction           -0.000442135
FINAL SINGLE POINT ENERGY     -1740.449411894552

DIPOLE MOMENT
-------------
                                X             Y             Z
Electronic contribution:     -0.00000      -0.00000      -2.78878
Nuclear contribution   :      0.00000       0.00000       0.84427
                        -----------------------------------------
Total Dipole Moment    :     -0.00000      -0.00000      -1.94452
                        -----------------------------------------
Magnitude (a.u.)       :      1.94452
Magnitude (Debye)      :      4.94257

Rotational constants in cm-1:     0.000000     0.374004     0.374004
Rotational constants in MHz :     0.000000 11212.347169 11212.347169

                             ****ORCA TERMINATED NORMALLY****
TOTAL RUN TIME: 0 days 0 hours 1 minutes 22 seconds 203 msec
