                         Program Version 4.2.0 -  RELEASE  -
|  1> #
|  2> # 51_CuCl tpssh/aug-cc-pvtz
|  3> #
|  4> ! tpssh d3bj aug-cc-pvtz def2/jk grid4 nofinalgrid
|  5>
|  6> *xyz 0 1
|  7>   Cu  0.00000000000000      0.00000000000000     -0.03459121817691
|  8>   Cl  0.00000000000000      0.00000000000000      2.03459121817691
|  9> *
| 10>
| 11> %pal
| 12> nprocs 24
| 13> end
| 14>
| 15>
| 16>                          ****END OF INPUT****

CARTESIAN COORDINATES (ANGSTROEM)
---------------------------------
  Cu     0.000000    0.000000   -0.034591
  Cl     0.000000    0.000000    2.034591

 Total Charge           Charge          ....    0
 Multiplicity           Mult            ....    1
 Number of Electrons    NEL             ....   46
 Basis Dimension        Dim             ....  143

ORBITAL ENERGIES
----------------

  NO   OCC          E(Eh)            E(eV)
   0   2.0000    -322.770972     -8783.0447
   1   2.0000    -101.357322     -2758.0730
   2   2.0000     -38.645987     -1051.6108
   3   2.0000     -33.821589      -920.3322
   4   2.0000     -33.821589      -920.3322
   5   2.0000     -33.821473      -920.3291
   6   2.0000      -9.335135      -254.0219
   7   2.0000      -7.081213      -192.6896
   8   2.0000      -7.076217      -192.5537
   9   2.0000      -7.076217      -192.5537
  10   2.0000      -4.269468      -116.1781
  11   2.0000      -2.764463       -75.2249
  12   2.0000      -2.758620       -75.0659
  13   2.0000      -2.758620       -75.0659
  14   2.0000      -0.739868       -20.1328
  15   2.0000      -0.342962        -9.3325
  16   2.0000      -0.303501        -8.2587
  17   2.0000      -0.303501        -8.2587
  18   2.0000      -0.268689        -7.3114
  19   2.0000      -0.268687        -7.3113
  20   2.0000      -0.248376        -6.7587
  21   2.0000      -0.243036        -6.6133
  22   2.0000      -0.243036        -6.6133
  23   0.0000      -0.121855        -3.3158
  24   0.0000      -0.011458        -0.3118
  25   0.0000      -0.011458        -0.3118
  26   0.0000       0.011114         0.3024
  27   0.0000       0.014602         0.3973

MULLIKEN ATOMIC CHARGES
-----------------------
   0 Cu:    0.539355
   1 Cl:   -0.539355
Sum of atomic charges:   -0.0000000

LOEWDIN ATOMIC CHARGES
----------------------
   0 Cu:    0.046542
   1 Cl:   -0.046542

  Mayer bond orders larger than 0.100000
B(  0-Cu,  1-Cl) :   0.9639

Dispersion correction           -0.001255429
FINAL SINGLE POINT ENERGY     -2100.845209720843

DIPOLE MOMENT
-------------
                                X             Y             Z
Electronic contribution:     -0.00000      -0.00000      -4.01034
Nuclear contribution   :      0.00000       0.00000       2.06219
                        -----------------------------------------
Total Dipole Moment    :     -0.00000      -0.00000      -1.94815
                        -----------------------------------------
Magnitude (a.u.)       :      1.94815
Magnitude (Debye)      :      4.95181

Rotational constants in cm-1:     0.000000     0.173013     0.173013
Rotational constants in MHz :     0.000000  5186.804112  5186.804112

                             ****ORCA TERMINATED NORMALLY****
TOTAL RUN TIME: 0 days 0 hours 1 minutes 26 seconds 422 msec
