                         Program Version 4.2.0 -  RELEASE  -
|  1> #
|  2> # 53_CuO tpssh/aug-cc-pvtz
|  3> #
|  4> ! tpssh d3bj aug-cc-pvtz def2/jk grid4 nofinalgrid
|  5>
|  6> *xyz 0 2
|  7>   Cu  0.00000000000000      0.00000000000000      0.13870993735929
|  8>   O   0.00000000000000      0.00000000000000      1.86129006264071
|  9> *
| 10>
| 11> %pal
| 12> nprocs 24
| 13> end
| 14>
| 15>
| 16>                          ****END OF INPUT****

CARTESIAN COORDINATES (ANGSTROEM)
---------------------------------
  Cu     0.000000    0.000000    0.138710
  O      0.000000    0.000000    1.861290

 Total Charge           Charge          ....    0
 Multiplicity           Mult            ....    2
 Number of Electrons    NEL             ....   37
 Basis Dimension        Dim             ....  139

ORBITAL ENERGIES
----------------
                 SPIN UP ORBITALS
  NO   OCC          E(Eh)            E(eV)
   0   1.0000    -322.792107     -8783.6198
   1   1.0000     -38.675308     -1052.4086
   2   1.0000     -33.852482      -921.1729
   3   1.0000     -33.851829      -921.1551
   4   1.0000     -33.845343      -920.9786
   5   1.0000     -19.064127      -518.7613
   6   1.0000      -4.297144      -116.9312
   7   1.0000      -2.796530       -76.0975
   8   1.0000      -2.788624       -75.8823
   9   1.0000      -2.776422       -75.5503
  10   1.0000      -0.885668       -24.1003
  11   1.0000      -0.359602        -9.7853
  12   1.0000      -0.353159        -9.6099
  13   1.0000      -0.321571        -8.7504
  14   1.0000      -0.286423        -7.7940
  15   1.0000      -0.286318        -7.7911
  16   1.0000      -0.272632        -7.4187
  17   1.0000      -0.244033        -6.6405
  18   1.0000      -0.233646        -6.3578
  19   0.0000      -0.119833        -3.2608
  20   0.0000      -0.009878        -0.2688
  21   0.0000      -0.005893        -0.1603
  22   0.0000       0.012840         0.3494
  23   0.0000       0.017706         0.4818

                 SPIN DOWN ORBITALS
  NO   OCC          E(Eh)            E(eV)
   0   1.0000    -322.792103     -8783.6197
   1   1.0000     -38.671073     -1052.2934
   2   1.0000     -33.847582      -921.0395
   3   1.0000     -33.847371      -921.0338
   4   1.0000     -33.843852      -920.9380
   5   1.0000     -19.039744      -518.0978
   6   1.0000      -4.288027      -116.6831
   7   1.0000      -2.783504       -75.7430
   8   1.0000      -2.777023       -75.5666
   9   1.0000      -2.772819       -75.4523
  10   1.0000      -0.818622       -22.2758
  11   1.0000      -0.334858        -9.1119
  12   1.0000      -0.313418        -8.5285
  13   1.0000      -0.293417        -7.9843
  14   1.0000      -0.282268        -7.6809
  15   1.0000      -0.282226        -7.6798
  16   1.0000      -0.234588        -6.3835
  17   1.0000      -0.218414        -5.9434
  18   0.0000      -0.136383        -3.7112
  19   0.0000      -0.114853        -3.1253
  20   0.0000      -0.007629        -0.2076
  21   0.0000      -0.003027        -0.0824
  22   0.0000       0.011721         0.3190

MULLIKEN ATOMIC CHARGES AND SPIN POPULATIONS
--------------------------------------------
   0 Cu:    0.604972    0.069042
   1 O :   -0.604972    0.930958
Sum of atomic charges         :   -0.0000000

LOEWDIN ATOMIC CHARGES AND SPIN POPULATIONS
-------------------------------------------
   0 Cu:    0.408056    0.139535
   1 O :   -0.408056    0.860465

  Mayer bond orders larger than 0.100000
B(  0-Cu,  1-O ) :   1.1196

Dispersion correction           -0.000604567
FINAL SINGLE POINT ENERGY     -1715.738406949126

DIPOLE MOMENT
-------------
                                X             Y             Z
Electronic contribution:     -0.00000      -0.00000      -3.60724
Nuclear contribution   :      0.00000       0.00000       1.81807
                        -----------------------------------------
Total Dipole Moment    :     -0.00000      -0.00000      -1.78917
                        -----------------------------------------
Magnitude (a.u.)       :      1.78917
Magnitude (Debye)      :      4.54771

Rotational constants in cm-1:     0.000000     0.444492     0.444492
Rotational constants in MHz :     0.000000 13325.547784 13325.547784

                             ****ORCA TERMINATED NORMALLY****
TOTAL RUN TIME: 0 days 0 hours 2 minutes 32 seconds 757 msec
