                         Program Version 4.2.0 -  RELEASE  -
|  1> #
|  2> # 59_ZnO tpssh/aug-cc-pvtz
|  3> #
|  4> ! tpssh d3bj aug-cc-pvtz def2/jk grid4 nofinalgrid
|  5>
|  6> *xyz 0 1
|  7>   Zn  0.00000000000000      0.00000000000000      0.14991809043900
|  8>   O   0.00000000000000      0.00000000000000      1.85008190956100
|  9> *
| 10>
| 11> %pal
| 12> nprocs 24
| 13> end
| 14>
| 15>
| 16>                          ****END OF INPUT****

CARTESIAN COORDINATES (ANGSTROEM)
---------------------------------
  Zn     0.000000    0.000000    0.149918
  O      0.000000    0.000000    1.850082

 Total Charge           Charge          ....    0
 Multiplicity           Mult            ....    1
 Number of Electrons    NEL             ....   38
 Basis Dimension        Dim             ....  139

ORBITAL ENERGIES
----------------

  NO   OCC          E(Eh)            E(eV)
   0   2.0000    -347.042506     -9443.5067
   1   2.0000     -42.069129     -1144.7592
   2   2.0000     -37.018234     -1007.3174
   3   2.0000     -37.018234     -1007.3174
   4   2.0000     -37.017309     -1007.2922
   5   2.0000     -19.018189      -517.5112
   6   2.0000      -4.816365      -131.0600
   7   2.0000      -3.203643       -87.1756
   8   2.0000      -3.201677       -87.1221
   9   2.0000      -3.201677       -87.1221
  10   2.0000      -0.837252       -22.7828
  11   2.0000      -0.500118       -13.6089
  12   2.0000      -0.500118       -13.6089
  13   2.0000      -0.496019       -13.4974
  14   2.0000      -0.493684       -13.4338
  15   2.0000      -0.493684       -13.4338
  16   2.0000      -0.293471        -7.9857
  17   2.0000      -0.230712        -6.2780
  18   2.0000      -0.230712        -6.2780
  19   0.0000      -0.165660        -4.5078
  20   0.0000      -0.026830        -0.7301
  21   0.0000      -0.026830        -0.7301
  22   0.0000       0.002654         0.0722
  23   0.0000       0.017163         0.4670

MULLIKEN ATOMIC CHARGES
-----------------------
   0 Zn:    0.818170
   1 O :   -0.818170
Sum of atomic charges:   -0.0000000

LOEWDIN ATOMIC CHARGES
----------------------
   0 Zn:    0.697599
   1 O :   -0.697599

  Mayer bond orders larger than 0.100000
B(  0-Zn,  1-O ) :   1.5844

Dispersion correction           -0.000679490
FINAL SINGLE POINT ENERGY     -1854.578170403071

DIPOLE MOMENT
-------------
                                X             Y             Z
Electronic contribution:     -0.00000      -0.00000      -3.97210
Nuclear contribution   :      0.00000       0.00000       1.70040
                        -----------------------------------------
Total Dipole Moment    :     -0.00000      -0.00000      -2.27169
                        -----------------------------------------
Magnitude (a.u.)       :      2.27169
Magnitude (Debye)      :      5.77418

Rotational constants in cm-1:     0.000000     0.453722     0.453722
Rotational constants in MHz :     0.000000 13602.247054 13602.247054

                             ****ORCA TERMINATED NORMALLY****
TOTAL RUN TIME: 0 days 0 hours 2 minutes 14 seconds 623 msec
