                         Program Version 4.2.0 -  RELEASE  -
|  1> #
|  2> # 60_ZnS tpssh/aug-cc-pvtz
|  3> #
|  4> ! tpssh d3bj aug-cc-pvtz def2/jk grid4 nofinalgrid
|  5>
|  6> *xyz 0 1
|  7>   Zn  0.00000000000000      0.00000000000000     -0.02757018403008
|  8>   S   0.00000000000000      0.00000000000000      2.02757018403008
|  9> *
| 10>
| 11> %pal
| 12> nprocs 24
| 13> end
| 14>
| 15>
| 16>                          ****END OF INPUT****

CARTESIAN COORDINATES (ANGSTROEM)
---------------------------------
  Zn     0.000000    0.000000   -0.027570
  S      0.000000    0.000000    2.027570

 Total Charge           Charge          ....    0
 Multiplicity           Mult            ....    1
 Number of Electrons    NEL             ....   46
 Basis Dimension        Dim             ....  143

ORBITAL ENERGIES
----------------

  NO   OCC          E(Eh)            E(eV)
   0   2.0000    -347.056131     -9443.8774
   1   2.0000     -88.709887     -2413.9187
   2   2.0000     -42.082066     -1145.1112
   3   2.0000     -37.030974     -1007.6640
   4   2.0000     -37.030974     -1007.6640
   5   2.0000     -37.030942     -1007.6632
   6   2.0000      -7.833273      -213.1542
   7   2.0000      -5.787373      -157.4824
   8   2.0000      -5.777168      -157.2047
   9   2.0000      -5.777168      -157.2047
  10   2.0000      -4.828887      -131.4007
  11   2.0000      -3.217399       -87.5499
  12   2.0000      -3.213795       -87.4518
  13   2.0000      -3.213795       -87.4518
  14   2.0000      -0.632779       -17.2188
  15   2.0000      -0.511805       -13.9269
  16   2.0000      -0.511805       -13.9269
  17   2.0000      -0.505416       -13.7531
  18   2.0000      -0.505412       -13.7530
  19   2.0000      -0.503621       -13.7042
  20   2.0000      -0.304623        -8.2892
  21   2.0000      -0.217663        -5.9229
  22   2.0000      -0.217663        -5.9229
  23   0.0000      -0.164052        -4.4641
  24   0.0000      -0.034986        -0.9520
  25   0.0000      -0.034986        -0.9520
  26   0.0000       0.000793         0.0216
  27   0.0000       0.011611         0.3159

MULLIKEN ATOMIC CHARGES
-----------------------
   0 Zn:    0.521957
   1 S :   -0.521957
Sum of atomic charges:    0.0000000

LOEWDIN ATOMIC CHARGES
----------------------
   0 Zn:    0.323270
   1 S :   -0.323270

  Mayer bond orders larger than 0.100000
B(  0-Zn,  1-S ) :   1.6751

Dispersion correction           -0.001626532
FINAL SINGLE POINT ENERGY     -2177.622554662824

DIPOLE MOMENT
-------------
                                X             Y             Z
Electronic contribution:     -0.00000      -0.00000      -5.53049
Nuclear contribution   :      0.00000       0.00000       3.35914
                        -----------------------------------------
Total Dipole Moment    :     -0.00000      -0.00000      -2.17135
                        -----------------------------------------
Magnitude (a.u.)       :      2.17135
Magnitude (Debye)      :      5.51913

Rotational constants in cm-1:     0.000000     0.185542     0.185542
Rotational constants in MHz :     0.000000  5562.415993  5562.415993

                             ****ORCA TERMINATED NORMALLY****
TOTAL RUN TIME: 0 days 0 hours 1 minutes 50 seconds 530 msec
