                         Program Version 4.2.0 -  RELEASE  -
|  1> #
|  2> # 73_Cl tpssh/aug-cc-pvtz
|  3> #
|  4> ! tpssh d3bj aug-cc-pvtz def2/jk grid4 nofinalgrid
|  5>
|  6> *xyz 0 2
|  7> Cl 0.0 0.0 0.0
|  8> *
|  9>
| 10> %pal
| 11> nprocs 24
| 12> end
| 13>
| 14>
| 15>                          ****END OF INPUT****

CARTESIAN COORDINATES (ANGSTROEM)
---------------------------------
  Cl     0.000000    0.000000    0.000000

 Total Charge           Charge          ....    0
 Multiplicity           Mult            ....    2
 Number of Electrons    NEL             ....   17
 Basis Dimension        Dim             ....   50

ORBITAL ENERGIES
----------------
                 SPIN UP ORBITALS
  NO   OCC          E(Eh)            E(eV)
   0   1.0000    -101.457988     -2760.8122
   1   1.0000      -9.433202      -256.6905
   2   1.0000      -7.193360      -195.7413
   3   1.0000      -7.169831      -195.1010
   4   1.0000      -7.169831      -195.1010
   5   1.0000      -0.827177       -22.5086
   6   1.0000      -0.398746       -10.8504
   7   1.0000      -0.339638        -9.2420
   8   1.0000      -0.339638        -9.2420
   9   0.0000       0.039600         1.0776
  10   0.0000       0.058078         1.5804
  11   0.0000       0.065128         1.7722
  12   0.0000       0.065128         1.7722
  13   0.0000       0.191218         5.2033

                 SPIN DOWN ORBITALS
  NO   OCC          E(Eh)            E(eV)
   0   1.0000    -101.451487     -2760.6353
   1   1.0000      -9.427360      -256.5315
   2   1.0000      -7.173157      -195.1915
   3   1.0000      -7.166433      -195.0086
   4   1.0000      -7.166433      -195.0086
   5   1.0000      -0.772627       -21.0242
   6   1.0000      -0.325016        -8.8441
   7   1.0000      -0.325016        -8.8441
   8   0.0000      -0.256835        -6.9888
   9   0.0000       0.047229         1.2852
  10   0.0000       0.066615         1.8127
  11   0.0000       0.066616         1.8127
  12   0.0000       0.071069         1.9339

MULLIKEN ATOMIC CHARGES AND SPIN POPULATIONS
--------------------------------------------
   0 Cl:    0.000000    1.000000
Sum of atomic charges         :    0.0000000

LOEWDIN ATOMIC CHARGES AND SPIN POPULATIONS
-------------------------------------------
   0 Cl:   -0.000000    1.000000

Dispersion correction            0.000000000
FINAL SINGLE POINT ENERGY      -460.172824763362

DIPOLE MOMENT
-------------
                                X             Y             Z
Electronic contribution:     -0.00000      -0.00000      -0.00000
Nuclear contribution   :      0.00000       0.00000       0.00000
                        -----------------------------------------
Total Dipole Moment    :     -0.00000      -0.00000      -0.00000
                        -----------------------------------------
Magnitude (a.u.)       :      0.00000
Magnitude (Debye)      :      0.00000

Rotational constants in cm-1:     0.000000     0.000000     0.000000
Rotational constants in MHz :     0.000000     0.000000     0.000000

                             ****ORCA TERMINATED NORMALLY****
TOTAL RUN TIME: 0 days 0 hours 0 minutes 3 seconds 81 msec
