                         Program Version 4.2.0 -  RELEASE  -
|  1> #
|  2> # 01_ScH wb97x-v/aug-cc-pvtz
|  3> #
|  4> ! wb97x-v aug-cc-pvtz def2/jk grid4 nofinalgrid
|  5>
|  6> *xyz 0 1
|  7>   Sc  0.00000000000000      0.00000000000000      0.11546868383427
|  8>   H   0.00000000000000      0.00000000000000      1.88453131616573
|  9> *
| 10>
| 11> %pal
| 12> nprocs 24
| 13> end
| 14>
| 15>
| 16>                          ****END OF INPUT****

CARTESIAN COORDINATES (ANGSTROEM)
---------------------------------
  Sc     0.000000    0.000000    0.115469
  H      0.000000    0.000000    1.884531

 Total Charge           Charge          ....    0
 Multiplicity           Mult            ....    1
 Number of Electrons    NEL             ....   22
 Basis Dimension        Dim             ....  116

ORBITAL ENERGIES
----------------

  NO   OCC          E(Eh)            E(eV)
   0   2.0000    -161.702466     -4400.1478
   1   2.0000     -17.749430      -482.9865
   2   2.0000     -14.670842      -399.2139
   3   2.0000     -14.670842      -399.2139
   4   2.0000     -14.655675      -398.8012
   5   2.0000      -2.267270       -61.6956
   6   2.0000      -1.455214       -39.5984
   7   2.0000      -1.455214       -39.5984
   8   2.0000      -1.435020       -39.0489
   9   2.0000      -0.379237       -10.3196
  10   2.0000      -0.243415        -6.6236
  11   0.0000      -0.003018        -0.0821
  12   0.0000       0.004027         0.1096
  13   0.0000       0.004027         0.1096
  14   0.0000       0.012643         0.3440
  15   0.0000       0.012644         0.3440

MULLIKEN ATOMIC CHARGES
-----------------------
   0 Sc:    0.215927
   1 H :   -0.215927
Sum of atomic charges:   -0.0000000

LOEWDIN ATOMIC CHARGES
----------------------
   0 Sc:    0.757069
   1 H :   -0.757069

  Mayer bond orders larger than 0.100000
B(  0-Sc,  1-H ) :   0.9662

FINAL SINGLE POINT ENERGY      -761.097781812367

DIPOLE MOMENT
-------------
                                X             Y             Z
Electronic contribution:      0.00000       0.00000      -2.56039
Nuclear contribution   :      0.00000       0.00000       1.73028
                        -----------------------------------------
Total Dipole Moment    :      0.00000       0.00000      -0.83011
                        -----------------------------------------
Magnitude (a.u.)       :      0.83011
Magnitude (Debye)      :      2.10996

Rotational constants in cm-1:     0.000000     5.463605     5.463605
Rotational constants in MHz :     0.000000 163794.743331 163794.743331

                             ****ORCA TERMINATED NORMALLY****
TOTAL RUN TIME: 0 days 0 hours 2 minutes 35 seconds 850 msec
