                         Program Version 4.2.0 -  RELEASE  -
|  1> #
|  2> # 03_ScCl wb97x-v/aug-cc-pvtz
|  3> #
|  4> ! wb97x-v aug-cc-pvtz def2/jk grid4 nofinalgrid
|  5>
|  6> *xyz 0 1
|  7>   Sc  0.00000000000000      0.00000000000000     -0.11786902866458
|  8>   Cl  0.00000000000000      0.00000000000000      2.11786902866458
|  9> *
| 10>
| 11> %pal
| 12> nprocs 24
| 13> end
| 14>
| 15>
| 16>                          ****END OF INPUT****

CARTESIAN COORDINATES (ANGSTROEM)
---------------------------------
  Sc     0.000000    0.000000   -0.117869
  Cl     0.000000    0.000000    2.117869

 Total Charge           Charge          ....    0
 Multiplicity           Mult            ....    1
 Number of Electrons    NEL             ....   38
 Basis Dimension        Dim             ....  143

ORBITAL ENERGIES
----------------

  NO   OCC          E(Eh)            E(eV)
   0   2.0000    -161.724176     -4400.7386
   1   2.0000    -101.522526     -2762.5684
   2   2.0000     -17.773386      -483.6384
   3   2.0000     -14.694555      -399.8592
   4   2.0000     -14.694555      -399.8592
   5   2.0000     -14.679562      -399.4512
   6   2.0000      -9.539495      -259.5828
   7   2.0000      -7.289883      -198.3678
   8   2.0000      -7.289049      -198.3451
   9   2.0000      -7.289049      -198.3451
  10   2.0000      -2.289767       -62.3077
  11   2.0000      -1.475518       -40.1509
  12   2.0000      -1.475518       -40.1509
  13   2.0000      -1.463747       -39.8306
  14   2.0000      -0.911487       -24.8028
  15   2.0000      -0.454418       -12.3653
  16   2.0000      -0.426995       -11.6191
  17   2.0000      -0.426995       -11.6191
  18   2.0000      -0.256549        -6.9810
  19   0.0000      -0.013960        -0.3799
  20   0.0000      -0.002604        -0.0709
  21   0.0000      -0.002604        -0.0709
  22   0.0000      -0.002197        -0.0598
  23   0.0000      -0.002196        -0.0597

MULLIKEN ATOMIC CHARGES
-----------------------
   0 Sc:    0.348021
   1 Cl:   -0.348021
Sum of atomic charges:   -0.0000000

LOEWDIN ATOMIC CHARGES
----------------------
   0 Sc:   -0.131352
   1 Cl:    0.131352

  Mayer bond orders larger than 0.100000
B(  0-Sc,  1-Cl) :   1.2088

FINAL SINGLE POINT ENERGY     -1220.764567722676

DIPOLE MOMENT
-------------
                                X             Y             Z
Electronic contribution:      0.00000      -0.00000      -2.36834
Nuclear contribution   :      0.00000       0.00000       1.04067
                        -----------------------------------------
Total Dipole Moment    :      0.00000      -0.00000      -1.32767
                        -----------------------------------------
Magnitude (a.u.)       :      1.32767
Magnitude (Debye)      :      3.37467

Rotational constants in cm-1:     0.000000     0.170138     0.170138
Rotational constants in MHz :     0.000000  5100.617263  5100.617263

                             ****ORCA TERMINATED NORMALLY****
TOTAL RUN TIME: 0 days 0 hours 4 minutes 10 seconds 483 msec
