                         Program Version 4.2.0 -  RELEASE  -
|  1> #
|  2> # 04_ScBr wb97x-v/aug-cc-pvtz
|  3> #
|  4> ! wb97x-v aug-cc-pvtz def2/jk grid4 nofinalgrid
|  5>
|  6> *xyz 0 1
|  7>   Sc  0.00000000000000      0.00000000000000     -0.19342129509946
|  8>   Br  0.00000000000000      0.00000000000000      2.19342129509946
|  9> *
| 10>
| 11> %pal
| 12> nprocs 24
| 13> end
| 14>
| 15>
| 16>                          ****END OF INPUT****

CARTESIAN COORDINATES (ANGSTROEM)
---------------------------------
  Sc     0.000000    0.000000   -0.193421
  Br     0.000000    0.000000    2.193421

 Total Charge           Charge          ....    0
 Multiplicity           Mult            ....    1
 Number of Electrons    NEL             ....   56
 Basis Dimension        Dim             ....  152

ORBITAL ENERGIES
----------------

  NO   OCC          E(Eh)            E(eV)
   0   2.0000    -482.638197    -13133.2530
   1   2.0000    -161.721465     -4400.6648
   2   2.0000     -62.512450     -1701.0503
   3   2.0000     -56.316136     -1532.4400
   4   2.0000     -56.315864     -1532.4326
   5   2.0000     -56.315864     -1532.4326
   6   2.0000     -17.768901      -483.5164
   7   2.0000     -14.690462      -399.7478
   8   2.0000     -14.690462      -399.7478
   9   2.0000     -14.674838      -399.3226
  10   2.0000      -8.776451      -238.8194
  11   2.0000      -6.598912      -179.5655
  12   2.0000      -6.597769      -179.5344
  13   2.0000      -6.597769      -179.5344
  14   2.0000      -2.722888       -74.0935
  15   2.0000      -2.722352       -74.0790
  16   2.0000      -2.722352       -74.0790
  17   2.0000      -2.721380       -74.0525
  18   2.0000      -2.721337       -74.0513
  19   2.0000      -2.286135       -62.2089
  20   2.0000      -1.472568       -40.0706
  21   2.0000      -1.472568       -40.0706
  22   2.0000      -1.458677       -39.6926
  23   2.0000      -0.867041       -23.5934
  24   2.0000      -0.426426       -11.6036
  25   2.0000      -0.396537       -10.7903
  26   2.0000      -0.396537       -10.7903
  27   2.0000      -0.256828        -6.9886
  28   0.0000      -0.016677        -0.4538
  29   0.0000      -0.002256        -0.0614
  30   0.0000      -0.002256        -0.0614
  31   0.0000      -0.001051        -0.0286
  32   0.0000      -0.001050        -0.0286

MULLIKEN ATOMIC CHARGES
-----------------------
   0 Sc:    0.299136
   1 Br:   -0.299136
Sum of atomic charges:   -0.0000000

LOEWDIN ATOMIC CHARGES
----------------------
   0 Sc:   -0.266400
   1 Br:    0.266400

  Mayer bond orders larger than 0.100000
B(  0-Sc,  1-Br) :   1.4052

FINAL SINGLE POINT ENERGY     -3334.575990546763

DIPOLE MOMENT
-------------
                                X             Y             Z
Electronic contribution:      0.00000       0.00000       2.34573
Nuclear contribution   :      0.00000       0.00000      -3.76776
                        -----------------------------------------
Total Dipole Moment    :      0.00000       0.00000      -1.42203
                        -----------------------------------------
Magnitude (a.u.)       :      1.42203
Magnitude (Debye)      :      3.61452

Rotational constants in cm-1:     0.000000     0.102849     0.102849
Rotational constants in MHz :     0.000000  3083.332036  3083.332036

                             ****ORCA TERMINATED NORMALLY****
TOTAL RUN TIME: 0 days 0 hours 5 minutes 50 seconds 681 msec
