                         Program Version 4.2.0 -  RELEASE  -
|  1> #
|  2> # 07_TiH wb97x-v/aug-cc-pvtz
|  3> #
|  4> ! wb97x-v aug-cc-pvtz def2/jk grid4 nofinalgrid
|  5>
|  6> *xyz 0 4
|  7>   Ti  0.00000000000000      0.00000000000000      0.11662089429905
|  8>   H   0.00000000000000      0.00000000000000      1.88337910570095
|  9> *
| 10>
| 11> %pal
| 12> nprocs 24
| 13> end
| 14>
| 15>
| 16>                          ****END OF INPUT****

CARTESIAN COORDINATES (ANGSTROEM)
---------------------------------
  Ti     0.000000    0.000000    0.116621
  H      0.000000    0.000000    1.883379

 Total Charge           Charge          ....    0
 Multiplicity           Mult            ....    4
 Number of Electrons    NEL             ....   23
 Basis Dimension        Dim             ....  116

ORBITAL ENERGIES
----------------
                 SPIN UP ORBITALS
  NO   OCC          E(Eh)            E(eV)
   0   1.0000    -178.754809     -4864.1657
   1   1.0000     -19.903474      -541.6011
   2   1.0000     -16.615056      -452.1187
   3   1.0000     -16.610068      -451.9829
   4   1.0000     -16.605988      -451.8719
   5   1.0000      -2.469725       -67.2046
   6   1.0000      -1.584271       -43.1102
   7   1.0000      -1.581191       -43.0264
   8   1.0000      -1.580063       -42.9957
   9   1.0000      -0.356005        -9.6874
  10   1.0000      -0.291423        -7.9300
  11   1.0000      -0.280948        -7.6450
  12   1.0000      -0.241284        -6.5657
  13   0.0000       0.004582         0.1247
  14   0.0000       0.005487         0.1493
  15   0.0000       0.010270         0.2795
  16   0.0000       0.024136         0.6568
  17   0.0000       0.034909         0.9499

                 SPIN DOWN ORBITALS
  NO   OCC          E(Eh)            E(eV)
   0   1.0000    -178.754037     -4864.1446
   1   1.0000     -19.881304      -540.9978
   2   1.0000     -16.599151      -451.6859
   3   1.0000     -16.593399      -451.5293
   4   1.0000     -16.583375      -451.2566
   5   1.0000      -2.396888       -65.2226
   6   1.0000      -1.517220       -41.2857
   7   1.0000      -1.503080       -40.9009
   8   1.0000      -1.481096       -40.3027
   9   1.0000      -0.347122        -9.4457
  10   0.0000       0.002606         0.0709
  11   0.0000       0.025516         0.6943
  12   0.0000       0.025583         0.6961
  13   0.0000       0.028120         0.7652
  14   0.0000       0.036325         0.9885

MULLIKEN ATOMIC CHARGES AND SPIN POPULATIONS
--------------------------------------------
   0 Ti:    0.202754    3.043036
   1 H :   -0.202754   -0.043036
Sum of atomic charges         :   -0.0000000

LOEWDIN ATOMIC CHARGES AND SPIN POPULATIONS
-------------------------------------------
   0 Ti:    0.682900    2.866485
   1 H :   -0.682900    0.133515

  Mayer bond orders larger than 0.100000
B(  0-Ti,  1-H ) :   0.9671

FINAL SINGLE POINT ENERGY      -849.828089757211

DIPOLE MOMENT
-------------
                                X             Y             Z
Electronic contribution:     -0.00000      -0.00000      -2.89979
Nuclear contribution   :      0.00000       0.00000       1.75604
                        -----------------------------------------
Total Dipole Moment    :     -0.00000      -0.00000      -1.14375
                        -----------------------------------------
Magnitude (a.u.)       :      1.14375
Magnitude (Debye)      :      2.90718

Rotational constants in cm-1:     0.000000     5.470494     5.470494
Rotational constants in MHz :     0.000000 164001.275229 164001.275229

                             ****ORCA TERMINATED NORMALLY****
TOTAL RUN TIME: 0 days 0 hours 9 minutes 51 seconds 856 msec
