                         Program Version 4.2.0 -  RELEASE  -
|  1> #
|  2> # 09_TiCl wb97x-v/aug-cc-pvtz
|  3> #
|  4> ! wb97x-v aug-cc-pvtz def2/jk grid4 nofinalgrid
|  5>
|  6> *xyz 0 4
|  7>   Ti  0.00000000000000      0.00000000000000     -0.11680209456005
|  8>   Cl  0.00000000000000      0.00000000000000      2.11680209456005
|  9> *
| 10>
| 11> %pal
| 12> nprocs 24
| 13> end
| 14>
| 15>
| 16>                          ****END OF INPUT****

CARTESIAN COORDINATES (ANGSTROEM)
---------------------------------
  Ti     0.000000    0.000000   -0.116802
  Cl     0.000000    0.000000    2.116802

 Total Charge           Charge          ....    0
 Multiplicity           Mult            ....    4
 Number of Electrons    NEL             ....   39
 Basis Dimension        Dim             ....  143

ORBITAL ENERGIES
----------------
                 SPIN UP ORBITALS
  NO   OCC          E(Eh)            E(eV)
   0   1.0000    -178.764497     -4864.4293
   1   1.0000    -101.495782     -2761.8406
   2   1.0000     -19.911679      -541.8243
   3   1.0000     -16.627315      -452.4522
   4   1.0000     -16.614471      -452.1027
   5   1.0000     -16.614471      -452.1027
   6   1.0000      -9.513015      -258.8623
   7   1.0000      -7.263370      -197.6463
   8   1.0000      -7.262422      -197.6205
   9   1.0000      -7.262422      -197.6205
  10   1.0000      -2.478970       -67.4562
  11   1.0000      -1.600365       -43.5481
  12   1.0000      -1.587865       -43.2080
  13   1.0000      -1.587865       -43.2080
  14   1.0000      -0.887566       -24.1519
  15   1.0000      -0.432844       -11.7783
  16   1.0000      -0.401736       -10.9318
  17   1.0000      -0.401736       -10.9318
  18   1.0000      -0.275483        -7.4963
  19   1.0000      -0.275481        -7.4962
  20   1.0000      -0.258171        -7.0252
  21   0.0000      -0.011620        -0.3162
  22   0.0000       0.004454         0.1212
  23   0.0000       0.004454         0.1212
  24   0.0000       0.024062         0.6548
  25   0.0000       0.028964         0.7882

                 SPIN DOWN ORBITALS
  NO   OCC          E(Eh)            E(eV)
   0   1.0000    -178.763743     -4864.4088
   1   1.0000    -101.496129     -2761.8501
   2   1.0000     -19.889443      -541.2193
   3   1.0000     -16.618438      -452.2107
   4   1.0000     -16.591281      -451.4717
   5   1.0000     -16.591281      -451.4717
   6   1.0000      -9.513328      -258.8708
   7   1.0000      -7.264051      -197.6649
   8   1.0000      -7.262874      -197.6328
   9   1.0000      -7.262874      -197.6328
  10   1.0000      -2.405595       -65.4596
  11   1.0000      -1.557732       -42.3881
  12   1.0000      -1.485701       -40.4280
  13   1.0000      -1.485701       -40.4280
  14   1.0000      -0.889068       -24.1928
  15   1.0000      -0.430918       -11.7259
  16   1.0000      -0.402335       -10.9481
  17   1.0000      -0.402335       -10.9481
  18   0.0000      -0.001155        -0.0314
  19   0.0000       0.027031         0.7356
  20   0.0000       0.027031         0.7356
  21   0.0000       0.027503         0.7484
  22   0.0000       0.036084         0.9819

MULLIKEN ATOMIC CHARGES AND SPIN POPULATIONS
--------------------------------------------
   0 Ti:    0.410252    2.998365
   1 Cl:   -0.410252    0.001635
Sum of atomic charges         :   -0.0000000

LOEWDIN ATOMIC CHARGES AND SPIN POPULATIONS
-------------------------------------------
   0 Ti:   -0.173727    2.931404
   1 Cl:    0.173727    0.068596

  Mayer bond orders larger than 0.100000
B(  0-Ti,  1-Cl) :   1.1522

FINAL SINGLE POINT ENERGY     -1309.482034910097

DIPOLE MOMENT
-------------
                                X             Y             Z
Electronic contribution:     -0.00000      -0.00000      -3.68984
Nuclear contribution   :      0.00000       0.00000       1.73863
                        -----------------------------------------
Total Dipole Moment    :     -0.00000      -0.00000      -1.95120
                        -----------------------------------------
Magnitude (a.u.)       :      1.95120
Magnitude (Debye)      :      4.95957

Rotational constants in cm-1:     0.000000     0.165851     0.165851
Rotational constants in MHz :     0.000000  4972.077671  4972.077671

                             ****ORCA TERMINATED NORMALLY****
TOTAL RUN TIME: 0 days 0 hours 3 minutes 38 seconds 804 msec
