                         Program Version 4.2.0 -  RELEASE  -
|  1> #
|  2> # 10_TiBr wb97x-v/aug-cc-pvtz
|  3> #
|  4> ! wb97x-v aug-cc-pvtz def2/jk grid4 nofinalgrid
|  5>
|  6> *xyz 0 4
|  7>   Ti  0.00000000000000      0.00000000000000     -0.20373332414567
|  8>   Br  0.00000000000000      0.00000000000000      2.20373332414567
|  9> *
| 10>
| 11> %pal
| 12> nprocs 24
| 13> end
| 14>
| 15>
| 16>                          ****END OF INPUT****

CARTESIAN COORDINATES (ANGSTROEM)
---------------------------------
  Ti     0.000000    0.000000   -0.203733
  Br     0.000000    0.000000    2.203733

 Total Charge           Charge          ....    0
 Multiplicity           Mult            ....    4
 Number of Electrons    NEL             ....   57
 Basis Dimension        Dim             ....  152

ORBITAL ENERGIES
----------------
                 SPIN UP ORBITALS
  NO   OCC          E(Eh)            E(eV)
   0   1.0000    -482.612163    -13132.5446
   1   1.0000    -178.762127     -4864.3648
   2   1.0000     -62.486440     -1700.3425
   3   1.0000     -56.290165     -1531.7333
   4   1.0000     -56.289785     -1531.7229
   5   1.0000     -56.289785     -1531.7229
   6   1.0000     -19.907554      -541.7121
   7   1.0000     -16.622812      -452.3297
   8   1.0000     -16.610784      -452.0024
   9   1.0000     -16.610784      -452.0024
  10   1.0000      -8.750362      -238.1095
  11   1.0000      -6.573075      -178.8625
  12   1.0000      -6.571533      -178.8205
  13   1.0000      -6.571533      -178.8205
  14   1.0000      -2.696984       -73.3887
  15   1.0000      -2.696336       -73.3710
  16   1.0000      -2.696336       -73.3710
  17   1.0000      -2.695064       -73.3364
  18   1.0000      -2.695034       -73.3356
  19   1.0000      -2.476574       -67.3910
  20   1.0000      -1.597873       -43.4803
  21   1.0000      -1.585917       -43.1550
  22   1.0000      -1.585917       -43.1550
  23   1.0000      -0.841982       -22.9115
  24   1.0000      -0.404064       -10.9952
  25   1.0000      -0.370867       -10.0918
  26   1.0000      -0.370867       -10.0918
  27   1.0000      -0.274474        -7.4688
  28   1.0000      -0.274473        -7.4688
  29   1.0000      -0.262311        -7.1379
  30   0.0000      -0.017017        -0.4631
  31   0.0000       0.004629         0.1260
  32   0.0000       0.004629         0.1260
  33   0.0000       0.022720         0.6183
  34   0.0000       0.027592         0.7508

                 SPIN DOWN ORBITALS
  NO   OCC          E(Eh)            E(eV)
   0   1.0000    -482.612305    -13132.5485
   1   1.0000    -178.761452     -4864.3464
   2   1.0000     -62.486504     -1700.3442
   3   1.0000     -56.290361     -1531.7386
   4   1.0000     -56.289903     -1531.7261
   5   1.0000     -56.289903     -1531.7261
   6   1.0000     -19.884861      -541.0946
   7   1.0000     -16.613082      -452.0649
   8   1.0000     -16.587440      -451.3672
   9   1.0000     -16.587440      -451.3672
  10   1.0000      -8.750552      -238.1146
  11   1.0000      -6.573394      -178.8712
  12   1.0000      -6.571733      -178.8259
  13   1.0000      -6.571733      -178.8259
  14   1.0000      -2.697232       -73.3954
  15   1.0000      -2.696593       -73.3780
  16   1.0000      -2.696593       -73.3780
  17   1.0000      -2.695247       -73.3414
  18   1.0000      -2.695218       -73.3406
  19   1.0000      -2.401372       -65.3447
  20   1.0000      -1.550746       -42.1980
  21   1.0000      -1.482844       -40.3502
  22   1.0000      -1.482844       -40.3502
  23   1.0000      -0.843464       -22.9518
  24   1.0000      -0.401767       -10.9326
  25   1.0000      -0.371331       -10.1044
  26   1.0000      -0.371331       -10.1044
  27   0.0000      -0.006632        -0.1805
  28   0.0000       0.025431         0.6920
  29   0.0000       0.025718         0.6998
  30   0.0000       0.025719         0.6998
  31   0.0000       0.033706         0.9172

MULLIKEN ATOMIC CHARGES AND SPIN POPULATIONS
--------------------------------------------
   0 Ti:    0.385221    2.980521
   1 Br:   -0.385221    0.019479
Sum of atomic charges         :   -0.0000000

LOEWDIN ATOMIC CHARGES AND SPIN POPULATIONS
-------------------------------------------
   0 Ti:   -0.256052    2.933350
   1 Br:    0.256052    0.066650

  Mayer bond orders larger than 0.100000
B(  0-Ti,  1-Br) :   1.2337

FINAL SINGLE POINT ENERGY     -3423.294598818012

DIPOLE MOMENT
-------------
                                X             Y             Z
Electronic contribution:      0.00000       0.00000       0.70011
Nuclear contribution   :      0.00000       0.00000      -2.89414
                        -----------------------------------------
Total Dipole Moment    :      0.00000       0.00000      -2.19402
                        -----------------------------------------
Magnitude (a.u.)       :      2.19402
Magnitude (Debye)      :      5.57677

Rotational constants in cm-1:     0.000000     0.097124     0.097124
Rotational constants in MHz :     0.000000  2911.693161  2911.693161

                             ****ORCA TERMINATED NORMALLY****
TOTAL RUN TIME: 0 days 0 hours 7 minutes 49 seconds 434 msec
