                         Program Version 4.2.0 -  RELEASE  -
|  1> #
|  2> # 11_TiO wb97x-v/aug-cc-pvtz
|  3> #
|  4> ! wb97x-v aug-cc-pvtz def2/jk grid4 nofinalgrid
|  5>
|  6> *xyz 0 3
|  7>   Ti  0.00000000000000      0.00000000000000      0.18878211244980
|  8>   O   0.00000000000000      0.00000000000000      1.81121788755020
|  9> *
| 10>
| 11> %pal
| 12> nprocs 24
| 13> end
| 14>
| 15>
| 16>                          ****END OF INPUT****

CARTESIAN COORDINATES (ANGSTROEM)
---------------------------------
  Ti     0.000000    0.000000    0.188782
  O      0.000000    0.000000    1.811218

 Total Charge           Charge          ....    0
 Multiplicity           Mult            ....    3
 Number of Electrons    NEL             ....   30
 Basis Dimension        Dim             ....  139

ORBITAL ENERGIES
----------------
                 SPIN UP ORBITALS
  NO   OCC          E(Eh)            E(eV)
   0   1.0000    -178.810035     -4865.6684
   1   1.0000     -19.964654      -543.2659
   2   1.0000     -19.182226      -521.9749
   3   1.0000     -16.671676      -453.6594
   4   1.0000     -16.671158      -453.6453
   5   1.0000     -16.671149      -453.6450
   6   1.0000      -2.510663       -68.3186
   7   1.0000      -1.633857       -44.4595
   8   1.0000      -1.619705       -44.0744
   9   1.0000      -1.619676       -44.0736
  10   1.0000      -0.972161       -26.4538
  11   1.0000      -0.420786       -11.4502
  12   1.0000      -0.416443       -11.3320
  13   1.0000      -0.416418       -11.3313
  14   1.0000      -0.326869        -8.8946
  15   1.0000      -0.253179        -6.8893
  16   0.0000      -0.002411        -0.0656
  17   0.0000      -0.002370        -0.0645
  18   0.0000       0.009688         0.2636
  19   0.0000       0.024794         0.6747
  20   0.0000       0.026152         0.7116

                 SPIN DOWN ORBITALS
  NO   OCC          E(Eh)            E(eV)
   0   1.0000    -178.809057     -4865.6418
   1   1.0000     -19.951649      -542.9120
   2   1.0000     -19.185148      -522.0544
   3   1.0000     -16.666217      -453.5108
   4   1.0000     -16.657855      -453.2833
   5   1.0000     -16.657839      -453.2828
   6   1.0000      -2.469416       -67.1962
   7   1.0000      -1.610265       -43.8175
   8   1.0000      -1.563861       -42.5548
   9   1.0000      -1.563761       -42.5521
  10   1.0000      -0.978636       -26.6300
  11   1.0000      -0.421074       -11.4580
  12   1.0000      -0.420236       -11.4352
  13   1.0000      -0.420216       -11.4346
  14   0.0000      -0.005886        -0.1602
  15   0.0000       0.026912         0.7323
  16   0.0000       0.026938         0.7330
  17   0.0000       0.029251         0.7960
  18   0.0000       0.034338         0.9344

MULLIKEN ATOMIC CHARGES AND SPIN POPULATIONS
--------------------------------------------
   0 Ti:    0.555905    2.110377
   1 O :   -0.555905   -0.110377
Sum of atomic charges         :   -0.0000000

LOEWDIN ATOMIC CHARGES AND SPIN POPULATIONS
-------------------------------------------
   0 Ti:    0.608677    1.969223
   1 O :   -0.608677    0.030777

  Mayer bond orders larger than 0.100000
B(  0-Ti,  1-O ) :   2.2848

FINAL SINGLE POINT ENERGY      -924.553545311558

DIPOLE MOMENT
-------------
                                X             Y             Z
Electronic contribution:      0.00000      -0.00000      -2.93883
Nuclear contribution   :      0.00000       0.00000       1.49807
                        -----------------------------------------
Total Dipole Moment    :      0.00000      -0.00000      -1.44075
                        -----------------------------------------
Magnitude (a.u.)       :      1.44075
Magnitude (Debye)      :      3.66211

Rotational constants in cm-1:     0.000000     0.533983     0.533983
Rotational constants in MHz :     0.000000 16008.413204 16008.413204

                             ****ORCA TERMINATED NORMALLY****
TOTAL RUN TIME: 0 days 0 hours 14 minutes 31 seconds 940 msec
