                         Program Version 4.2.0 -  RELEASE  -
|  1> #
|  2> # 12_TiS wb97x-v/aug-cc-pvtz
|  3> #
|  4> ! wb97x-v aug-cc-pvtz def2/jk grid4 nofinalgrid
|  5>
|  6> *xyz 0 3
|  7>   Ti  0.00000000000000      0.00000000000000     -0.04354772803913
|  8>   S   0.00000000000000      0.00000000000000      2.04354772803913
|  9> *
| 10>
| 11> %pal
| 12> nprocs 24
| 13> end
| 14>
| 15>
| 16>                          ****END OF INPUT****

CARTESIAN COORDINATES (ANGSTROEM)
---------------------------------
  Ti     0.000000    0.000000   -0.043548
  S      0.000000    0.000000    2.043548

 Total Charge           Charge          ....    0
 Multiplicity           Mult            ....    3
 Number of Electrons    NEL             ....   38
 Basis Dimension        Dim             ....  143

ORBITAL ENERGIES
----------------
                 SPIN UP ORBITALS
  NO   OCC          E(Eh)            E(eV)
   0   1.0000    -178.812174     -4865.7266
   1   1.0000     -88.818983     -2416.8874
   2   1.0000     -19.964605      -543.2645
   3   1.0000     -16.671842      -453.6639
   4   1.0000     -16.671833      -453.6636
   5   1.0000     -16.670420      -453.6252
   6   1.0000      -7.976696      -217.0569
   7   1.0000      -5.929078      -161.3384
   8   1.0000      -5.929075      -161.3383
   9   1.0000      -5.928484      -161.3222
  10   1.0000      -2.515374       -68.4468
  11   1.0000      -1.626869       -44.2694
  12   1.0000      -1.625043       -44.2197
  13   1.0000      -1.625011       -44.2188
  14   1.0000      -0.727717       -19.8022
  15   1.0000      -0.360081        -9.7983
  16   1.0000      -0.332841        -9.0571
  17   1.0000      -0.327465        -8.9108
  18   1.0000      -0.327450        -8.9104
  19   1.0000      -0.273978        -7.4553
  20   0.0000      -0.024235        -0.6595
  21   0.0000      -0.007660        -0.2084
  22   0.0000      -0.007592        -0.2066
  23   0.0000       0.019066         0.5188
  24   0.0000       0.019819         0.5393

                 SPIN DOWN ORBITALS
  NO   OCC          E(Eh)            E(eV)
   0   1.0000    -178.811442     -4865.7067
   1   1.0000     -88.820228     -2416.9213
   2   1.0000     -19.948242      -542.8193
   3   1.0000     -16.660315      -453.3502
   4   1.0000     -16.656676      -453.2512
   5   1.0000     -16.656647      -453.2504
   6   1.0000      -7.977879      -217.0891
   7   1.0000      -5.930943      -161.3892
   8   1.0000      -5.930914      -161.3884
   9   1.0000      -5.930652      -161.3812
  10   1.0000      -2.462283       -67.0021
  11   1.0000      -1.578239       -42.9461
  12   1.0000      -1.561452       -42.4893
  13   1.0000      -1.561356       -42.4867
  14   1.0000      -0.736312       -20.0361
  15   1.0000      -0.350940        -9.5496
  16   1.0000      -0.329539        -8.9672
  17   1.0000      -0.329458        -8.9650
  18   0.0000      -0.030572        -0.8319
  19   0.0000       0.016636         0.4527
  20   0.0000       0.016658         0.4533
  21   0.0000       0.016723         0.4550
  22   0.0000       0.027275         0.7422

MULLIKEN ATOMIC CHARGES AND SPIN POPULATIONS
--------------------------------------------
   0 Ti:    0.251614    2.185775
   1 S :   -0.251614   -0.185775
Sum of atomic charges         :   -0.0000000

LOEWDIN ATOMIC CHARGES AND SPIN POPULATIONS
-------------------------------------------
   0 Ti:    0.054188    2.029529
   1 S :   -0.054188   -0.029529

  Mayer bond orders larger than 0.100000
B(  0-Ti,  1-S ) :   2.5153

FINAL SINGLE POINT ENERGY     -1247.460975489497

DIPOLE MOMENT
-------------
                                X             Y             Z
Electronic contribution:     -0.00000      -0.00000      -5.64457
Nuclear contribution   :      0.00000       0.00000       3.01278
                        -----------------------------------------
Total Dipole Moment    :     -0.00000      -0.00000      -2.63179
                        -----------------------------------------
Magnitude (a.u.)       :      2.63179
Magnitude (Debye)      :      6.68949

Rotational constants in cm-1:     0.000000     0.201505     0.201505
Rotational constants in MHz :     0.000000  6040.970749  6040.970749

                             ****ORCA TERMINATED NORMALLY****
TOTAL RUN TIME: 0 days 0 hours 9 minutes 34 seconds 896 msec
