                         Program Version 4.2.0 -  RELEASE  -
|  1> #
|  2> # 13_VH wb97x-v/aug-cc-pvtz
|  3> #
|  4> ! wb97x-v aug-cc-pvtz def2/jk grid4 nofinalgrid
|  5>
|  6> *xyz 0 5
|  7>   V   0.00000000000000      0.00000000000000      0.15541431667182
|  8>   H   0.00000000000000      0.00000000000000      1.84458568332818
|  9> *
| 10>
| 11> %pal
| 12> nprocs 24
| 13> end
| 14>
| 15>
| 16>                          ****END OF INPUT****

CARTESIAN COORDINATES (ANGSTROEM)
---------------------------------
  V      0.000000    0.000000    0.155414
  H      0.000000    0.000000    1.844586

 Total Charge           Charge          ....    0
 Multiplicity           Mult            ....    5
 Number of Electrons    NEL             ....   24
 Basis Dimension        Dim             ....  116

ORBITAL ENERGIES
----------------
                 SPIN UP ORBITALS
  NO   OCC          E(Eh)            E(eV)
   0   1.0000    -196.655321     -5351.2633
   1   1.0000     -22.158061      -602.9515
   2   1.0000     -18.661300      -507.7998
   3   1.0000     -18.650492      -507.5057
   4   1.0000     -18.650492      -507.5057
   5   1.0000      -2.655104       -72.2491
   6   1.0000      -1.695053       -46.1247
   7   1.0000      -1.694273       -46.1035
   8   1.0000      -1.694273       -46.1035
   9   1.0000      -0.330219        -8.9857
  10   1.0000      -0.247017        -6.7217
  11   1.0000      -0.247017        -6.7217
  12   1.0000      -0.229361        -6.2412
  13   1.0000      -0.229360        -6.2412
  14   0.0000      -0.018450        -0.5020
  15   0.0000       0.018512         0.5037
  16   0.0000       0.018512         0.5037
  17   0.0000       0.027491         0.7481
  18   0.0000       0.029533         0.8036

                 SPIN DOWN ORBITALS
  NO   OCC          E(Eh)            E(eV)
   0   1.0000    -196.655266     -5351.2618
   1   1.0000     -22.117352      -601.8437
   2   1.0000     -18.633627      -507.0468
   3   1.0000     -18.613991      -506.5124
   4   1.0000     -18.613991      -506.5124
   5   1.0000      -2.529259       -68.8246
   6   1.0000      -1.580807       -43.0160
   7   1.0000      -1.539917       -41.9033
   8   1.0000      -1.539917       -41.9033
   9   1.0000      -0.321397        -8.7456
  10   0.0000      -0.002393        -0.0651
  11   0.0000       0.023578         0.6416
  12   0.0000       0.023578         0.6416
  13   0.0000       0.029900         0.8136
  14   0.0000       0.037316         1.0154

MULLIKEN ATOMIC CHARGES AND SPIN POPULATIONS
--------------------------------------------
   0 V :    0.190264    4.063685
   1 H :   -0.190264   -0.063685
Sum of atomic charges         :   -0.0000000

LOEWDIN ATOMIC CHARGES AND SPIN POPULATIONS
-------------------------------------------
   0 V :    0.680726    3.883093
   1 H :   -0.680726    0.116907

  Mayer bond orders larger than 0.100000
B(  0-V ,  1-H ) :   0.9712

FINAL SINGLE POINT ENERGY      -944.354601521252

DIPOLE MOMENT
-------------
                                X             Y             Z
Electronic contribution:     -0.00000       0.00000      -3.43543
Nuclear contribution   :      0.00000       0.00000       1.70553
                        -----------------------------------------
Total Dipole Moment    :     -0.00000       0.00000      -1.72989
                        -----------------------------------------
Magnitude (a.u.)       :      1.72989
Magnitude (Debye)      :      4.39703

Rotational constants in cm-1:     0.000000     5.977214     5.977214
Rotational constants in MHz :     0.000000 179192.381350 179192.381350

                             ****ORCA TERMINATED NORMALLY****
TOTAL RUN TIME: 0 days 0 hours 3 minutes 44 seconds 511 msec
