                         Program Version 4.2.0 -  RELEASE  -
|  1> #
|  2> # 14_VF wb97x-v/aug-cc-pvtz
|  3> #
|  4> ! wb97x-v aug-cc-pvtz def2/jk grid4 nofinalgrid
|  5>
|  6> *xyz 0 5
|  7>   V   0.00000000000000      0.00000000000000      0.09137228252025
|  8>   F   0.00000000000000      0.00000000000000      1.90862771747975
|  9> *
| 10>
| 11> %pal
| 12> nprocs 24
| 13> end
| 14>
| 15>
| 16>                          ****END OF INPUT****

CARTESIAN COORDINATES (ANGSTROEM)
---------------------------------
  V      0.000000    0.000000    0.091372
  F      0.000000    0.000000    1.908628

 Total Charge           Charge          ....    0
 Multiplicity           Mult            ....    5
 Number of Electrons    NEL             ....   32
 Basis Dimension        Dim             ....  139

ORBITAL ENERGIES
----------------
                 SPIN UP ORBITALS
  NO   OCC          E(Eh)            E(eV)
   0   1.0000    -196.769274     -5354.3642
   1   1.0000     -24.688087      -671.7970
   2   1.0000     -22.287874      -606.4839
   3   1.0000     -18.787922      -511.2453
   4   1.0000     -18.782037      -511.0852
   5   1.0000     -18.776960      -510.9471
   6   1.0000      -2.768632       -75.3383
   7   1.0000      -1.807977       -49.1976
   8   1.0000      -1.801776       -49.0288
   9   1.0000      -1.797487       -48.9121
  10   1.0000      -1.212208       -32.9859
  11   1.0000      -0.503342       -13.6966
  12   1.0000      -0.487226       -13.2581
  13   1.0000      -0.476897       -12.9770
  14   1.0000      -0.330311        -8.9882
  15   1.0000      -0.328294        -8.9333
  16   1.0000      -0.322816        -8.7843
  17   1.0000      -0.267712        -7.2848
  18   0.0000      -0.001411        -0.0384
  19   0.0000       0.003790         0.1031
  20   0.0000       0.014368         0.3910
  21   0.0000       0.027182         0.7397
  22   0.0000       0.031188         0.8487

                 SPIN DOWN ORBITALS
  NO   OCC          E(Eh)            E(eV)
   0   1.0000    -196.768084     -5354.3318
   1   1.0000     -24.688367      -671.8046
   2   1.0000     -22.249534      -605.4406
   3   1.0000     -18.764388      -510.6050
   4   1.0000     -18.748940      -510.1846
   5   1.0000     -18.738883      -509.9109
   6   1.0000      -2.654741       -72.2392
   7   1.0000      -1.712581       -46.6017
   8   1.0000      -1.671551       -45.4852
   9   1.0000      -1.647326       -44.8260
  10   1.0000      -1.211313       -32.9615
  11   1.0000      -0.499647       -13.5961
  12   1.0000      -0.478328       -13.0160
  13   1.0000      -0.473676       -12.8894
  14   0.0000       0.007151         0.1946
  15   0.0000       0.029446         0.8013
  16   0.0000       0.030879         0.8403
  17   0.0000       0.031985         0.8704
  18   0.0000       0.042796         1.1645

MULLIKEN ATOMIC CHARGES AND SPIN POPULATIONS
--------------------------------------------
   0 V :    0.600837    3.999958
   1 F :   -0.600837    0.000042
Sum of atomic charges         :   -0.0000000

LOEWDIN ATOMIC CHARGES AND SPIN POPULATIONS
-------------------------------------------
   0 V :    0.349249    3.898758
   1 F :   -0.349249    0.101242

  Mayer bond orders larger than 0.100000
B(  0-V ,  1-F ) :   0.8078

FINAL SINGLE POINT ENERGY     -1043.718279737200

DIPOLE MOMENT
-------------
                                X             Y             Z
Electronic contribution:     -0.00000       0.00000      -2.47838
Nuclear contribution   :      0.00000       0.00000       1.05599
                        -----------------------------------------
Total Dipole Moment    :     -0.00000       0.00000      -1.42239
                        -----------------------------------------
Magnitude (a.u.)       :      1.42239
Magnitude (Debye)      :      3.61543

Rotational constants in cm-1:     0.000000     0.368902     0.368902
Rotational constants in MHz :     0.000000 11059.411965 11059.411965

                             ****ORCA TERMINATED NORMALLY****
TOTAL RUN TIME: 0 days 0 hours 5 minutes 21 seconds 976 msec
