                         Program Version 4.2.0 -  RELEASE  -
|  1> #
|  2> # 15_VCl wb97x-v/aug-cc-pvtz
|  3> #
|  4> ! wb97x-v aug-cc-pvtz def2/jk grid4 nofinalgrid
|  5>
|  6> *xyz 0 5
|  7>   V   0.00000000000000      0.00000000000000     -0.10591307408469
|  8>   Cl  0.00000000000000      0.00000000000000      2.10591307408469
|  9> *
| 10>
| 11> %pal
| 12> nprocs 24
| 13> end
| 14>
| 15>
| 16>                          ****END OF INPUT****

CARTESIAN COORDINATES (ANGSTROEM)
---------------------------------
  V      0.000000    0.000000   -0.105913
  Cl     0.000000    0.000000    2.105913

 Total Charge           Charge          ....    0
 Multiplicity           Mult            ....    5
 Number of Electrons    NEL             ....   40
 Basis Dimension        Dim             ....  143

ORBITAL ENERGIES
----------------
                 SPIN UP ORBITALS
  NO   OCC          E(Eh)            E(eV)
   0   1.0000    -196.773480     -5354.4786
   1   1.0000    -101.489917     -2761.6810
   2   1.0000     -22.289790      -606.5360
   3   1.0000     -18.787311      -511.2287
   4   1.0000     -18.787305      -511.2286
   5   1.0000     -18.778591      -510.9914
   6   1.0000      -9.506727      -258.6912
   7   1.0000      -7.257497      -197.4865
   8   1.0000      -7.256157      -197.4501
   9   1.0000      -7.256156      -197.4501
  10   1.0000      -2.774246       -75.4911
  11   1.0000      -1.808755       -49.2187
  12   1.0000      -1.808740       -49.2183
  13   1.0000      -1.806814       -49.1659
  14   1.0000      -0.883495       -24.0411
  15   1.0000      -0.430873       -11.7246
  16   1.0000      -0.413981       -11.2650
  17   1.0000      -0.413962       -11.2645
  18   1.0000      -0.358291        -9.7496
  19   1.0000      -0.322876        -8.7859
  20   1.0000      -0.322839        -8.7849
  21   1.0000      -0.278846        -7.5878
  22   0.0000      -0.012037        -0.3276
  23   0.0000       0.010097         0.2748
  24   0.0000       0.012357         0.3363
  25   0.0000       0.012358         0.3363
  26   0.0000       0.025110         0.6833

                 SPIN DOWN ORBITALS
  NO   OCC          E(Eh)            E(eV)
   0   1.0000    -196.772422     -5354.4498
   1   1.0000    -101.489871     -2761.6798
   2   1.0000     -22.250608      -605.4698
   3   1.0000     -18.755844      -510.3725
   4   1.0000     -18.755824      -510.3719
   5   1.0000     -18.744732      -510.0701
   6   1.0000      -9.506678      -258.6899
   7   1.0000      -7.258141      -197.5041
   8   1.0000      -7.255735      -197.4386
   9   1.0000      -7.255735      -197.4386
  10   1.0000      -2.657425       -72.3122
  11   1.0000      -1.686281       -45.8860
  12   1.0000      -1.686218       -45.8843
  13   1.0000      -1.665474       -45.3199
  14   1.0000      -0.881808       -23.9952
  15   1.0000      -0.425647       -11.5824
  16   1.0000      -0.395206       -10.7541
  17   1.0000      -0.395203       -10.7540
  18   0.0000      -0.003166        -0.0861
  19   0.0000       0.027784         0.7560
  20   0.0000       0.027792         0.7563
  21   0.0000       0.028059         0.7635
  22   0.0000       0.037740         1.0270

MULLIKEN ATOMIC CHARGES AND SPIN POPULATIONS
--------------------------------------------
   0 V :    0.443575    3.959218
   1 Cl:   -0.443575    0.040782
Sum of atomic charges         :   -0.0000000

LOEWDIN ATOMIC CHARGES AND SPIN POPULATIONS
-------------------------------------------
   0 V :    0.014112    3.829245
   1 Cl:   -0.014112    0.170755

  Mayer bond orders larger than 0.100000
B(  0-V ,  1-Cl) :   1.0261

FINAL SINGLE POINT ENERGY     -1404.028500891663

DIPOLE MOMENT
-------------
                                X             Y             Z
Electronic contribution:      0.00000       0.00000      -4.31563
Nuclear contribution   :      0.00000       0.00000       2.44617
                        -----------------------------------------
Total Dipole Moment    :      0.00000       0.00000      -1.86946
                        -----------------------------------------
Magnitude (a.u.)       :      1.86946
Magnitude (Debye)      :      4.75179

Rotational constants in cm-1:     0.000000     0.164840     0.164840
Rotational constants in MHz :     0.000000  4941.766851  4941.766851

                             ****ORCA TERMINATED NORMALLY****
TOTAL RUN TIME: 0 days 0 hours 4 minutes 57 seconds 605 msec
