                         Program Version 4.2.0 -  RELEASE  -
|  1> #
|  2> # 17_VO wb97x-v/aug-cc-pvtz
|  3> #
|  4> ! wb97x-v aug-cc-pvtz def2/jk grid4 nofinalgrid
|  5>
|  6> *xyz 0 4
|  7>   V   0.00000000000000      0.00000000000000      0.20415600493149
|  8>   O   0.00000000000000      0.00000000000000      1.79584399506851
|  9> *
| 10>
| 11> %pal
| 12> nprocs 24
| 13> end
| 14>
| 15>
| 16>                          ****END OF INPUT****

CARTESIAN COORDINATES (ANGSTROEM)
---------------------------------
  V      0.000000    0.000000    0.204156
  O      0.000000    0.000000    1.795844

 Total Charge           Charge          ....    0
 Multiplicity           Mult            ....    4
 Number of Electrons    NEL             ....   31
 Basis Dimension        Dim             ....  139

ORBITAL ENERGIES
----------------
                 SPIN UP ORBITALS
  NO   OCC          E(Eh)            E(eV)
   0   1.0000    -196.798700     -5355.1649
   1   1.0000     -22.320017      -607.3585
   2   1.0000     -19.196360      -522.3595
   3   1.0000     -18.822001      -512.1727
   4   1.0000     -18.810793      -511.8677
   5   1.0000     -18.810793      -511.8677
   6   1.0000      -2.782589       -75.7181
   7   1.0000      -1.829157       -49.7739
   8   1.0000      -1.810468       -49.2653
   9   1.0000      -1.810468       -49.2653
  10   1.0000      -0.988305       -26.8932
  11   1.0000      -0.443998       -12.0818
  12   1.0000      -0.425977       -11.5914
  13   1.0000      -0.425977       -11.5914
  14   1.0000      -0.337117        -9.1734
  15   1.0000      -0.337114        -9.1734
  16   1.0000      -0.267153        -7.2696
  17   0.0000      -0.004106        -0.1117
  18   0.0000      -0.004106        -0.1117
  19   0.0000       0.001289         0.0351
  20   0.0000       0.027073         0.7367
  21   0.0000       0.033290         0.9059

                 SPIN DOWN ORBITALS
  NO   OCC          E(Eh)            E(eV)
   0   1.0000    -196.797668     -5355.1368
   1   1.0000     -22.290615      -606.5585
   2   1.0000     -19.202719      -522.5325
   3   1.0000     -18.810089      -511.8485
   4   1.0000     -18.780667      -511.0479
   5   1.0000     -18.780667      -511.0479
   6   1.0000      -2.696050       -73.3633
   7   1.0000      -1.779859       -48.4324
   8   1.0000      -1.692063       -46.0434
   9   1.0000      -1.692063       -46.0434
  10   1.0000      -1.003700       -27.3121
  11   1.0000      -0.441474       -12.0131
  12   1.0000      -0.434631       -11.8269
  13   1.0000      -0.434631       -11.8269
  14   0.0000      -0.003001        -0.0817
  15   0.0000       0.028843         0.7849
  16   0.0000       0.028843         0.7849
  17   0.0000       0.030875         0.8401
  18   0.0000       0.036574         0.9952

MULLIKEN ATOMIC CHARGES AND SPIN POPULATIONS
--------------------------------------------
   0 V :    0.532576    3.261689
   1 O :   -0.532576   -0.261689
Sum of atomic charges         :    0.0000000

LOEWDIN ATOMIC CHARGES AND SPIN POPULATIONS
-------------------------------------------
   0 V :    0.595386    3.044186
   1 O :   -0.595386   -0.044186

  Mayer bond orders larger than 0.100000
B(  0-V ,  1-O ) :   2.2889

FINAL SINGLE POINT ENERGY     -1019.073813855340

DIPOLE MOMENT
-------------
                                X             Y             Z
Electronic contribution:     -0.00000       0.00000      -3.31126
Nuclear contribution   :      0.00000       0.00000       1.77684
                        -----------------------------------------
Total Dipole Moment    :     -0.00000       0.00000      -1.53442
                        -----------------------------------------
Magnitude (a.u.)       :      1.53442
Magnitude (Debye)      :      3.90019

Rotational constants in cm-1:     0.000000     0.546523     0.546523
Rotational constants in MHz :     0.000000 16384.348098 16384.348098

                             ****ORCA TERMINATED NORMALLY****
TOTAL RUN TIME: 0 days 0 hours 3 minutes 43 seconds 326 msec
