                         Program Version 4.2.0 -  RELEASE  -
|  1> #
|  2> # 19_CrH wb97x-v/aug-cc-pvtz
|  3> #
|  4> ! wb97x-v aug-cc-pvtz def2/jk grid4 nofinalgrid
|  5>
|  6> *xyz 0 6
|  7>   Cr  0.00000000000000      0.00000000000000      0.17036458455703
|  8>   H   0.00000000000000      0.00000000000000      1.82963541544297
|  9> *
| 10>
| 11> %pal
| 12> nprocs 24
| 13> end
| 14>
| 15>
| 16>                          ****END OF INPUT****

CARTESIAN COORDINATES (ANGSTROEM)
---------------------------------
  Cr     0.000000    0.000000    0.170365
  H      0.000000    0.000000    1.829635

 Total Charge           Charge          ....    0
 Multiplicity           Mult            ....    6
 Number of Electrons    NEL             ....   25
 Basis Dimension        Dim             ....  116

ORBITAL ENERGIES
----------------
                 SPIN UP ORBITALS
  NO   OCC          E(Eh)            E(eV)
   0   1.0000    -215.565320     -5865.8306
   1   1.0000     -24.694143      -671.9618
   2   1.0000     -20.975817      -570.7810
   3   1.0000     -20.974965      -570.7578
   4   1.0000     -20.974965      -570.7578
   5   1.0000      -2.990835       -81.3848
   6   1.0000      -1.946966       -52.9796
   7   1.0000      -1.945372       -52.9363
   8   1.0000      -1.945372       -52.9363
   9   1.0000      -0.367092        -9.9891
  10   1.0000      -0.319640        -8.6978
  11   1.0000      -0.319640        -8.6978
  12   1.0000      -0.314179        -8.5492
  13   1.0000      -0.314179        -8.5492
  14   1.0000      -0.272679        -7.4200
  15   0.0000      -0.006665        -0.1814
  16   0.0000       0.015567         0.4236
  17   0.0000       0.015567         0.4236
  18   0.0000       0.026106         0.7104
  19   0.0000       0.037185         1.0118

                 SPIN DOWN ORBITALS
  NO   OCC          E(Eh)            E(eV)
   0   1.0000    -215.564526     -5865.8090
   1   1.0000     -24.633702      -670.3171
   2   1.0000     -20.929970      -569.5334
   3   1.0000     -20.924046      -569.3722
   4   1.0000     -20.924046      -569.3722
   5   1.0000      -2.820853       -76.7593
   6   1.0000      -1.767307       -48.0909
   7   1.0000      -1.754598       -47.7450
   8   1.0000      -1.754598       -47.7450
   9   1.0000      -0.351766        -9.5720
  10   0.0000      -0.001202        -0.0327
  11   0.0000       0.026871         0.7312
  12   0.0000       0.026871         0.7312
  13   0.0000       0.029582         0.8050
  14   0.0000       0.039748         1.0816

MULLIKEN ATOMIC CHARGES AND SPIN POPULATIONS
--------------------------------------------
   0 Cr:    0.248809    5.079860
   1 H :   -0.248809   -0.079860
Sum of atomic charges         :   -0.0000000

LOEWDIN ATOMIC CHARGES AND SPIN POPULATIONS
-------------------------------------------
   0 Cr:    0.614309    4.877416
   1 H :   -0.614309    0.122584

  Mayer bond orders larger than 0.100000
B(  0-Cr,  1-H ) :   0.9933

FINAL SINGLE POINT ENERGY     -1044.885862834171

DIPOLE MOMENT
-------------
                                X             Y             Z
Electronic contribution:      0.00000      -0.00000      -3.07974
Nuclear contribution   :      0.00000       0.00000       1.64492
                        -----------------------------------------
Total Dipole Moment    :      0.00000      -0.00000      -1.43482
                        -----------------------------------------
Magnitude (a.u.)       :      1.43482
Magnitude (Debye)      :      3.64703

Rotational constants in cm-1:     0.000000     6.192127     6.192127
Rotational constants in MHz :     0.000000 185635.310837 185635.310837

                             ****ORCA TERMINATED NORMALLY****
TOTAL RUN TIME: 0 days 0 hours 3 minutes 36 seconds 797 msec
