                         Program Version 4.2.0 -  RELEASE  -
|  1> #
|  2> # 20_CrF wb97x-v/aug-cc-pvtz
|  3> #
|  4> ! wb97x-v aug-cc-pvtz def2/jk grid4 nofinalgrid
|  5>
|  6> *xyz 0 6
|  7>   Cr  0.00000000000000      0.00000000000000      0.10659678981823
|  8>   F   0.00000000000000      0.00000000000000      1.89340321018177
|  9> *
| 10>
| 11> %pal
| 12> nprocs 24
| 13> end
| 14>
| 15>
| 16>                          ****END OF INPUT****

CARTESIAN COORDINATES (ANGSTROEM)
---------------------------------
  Cr     0.000000    0.000000    0.106597
  F      0.000000    0.000000    1.893403

 Total Charge           Charge          ....    0
 Multiplicity           Mult            ....    6
 Number of Electrons    NEL             ....   33
 Basis Dimension        Dim             ....  139

ORBITAL ENERGIES
----------------
                 SPIN UP ORBITALS
  NO   OCC          E(Eh)            E(eV)
   0   1.0000    -215.608489     -5867.0053
   1   1.0000     -24.741916      -673.2618
   2   1.0000     -24.671392      -671.3427
   3   1.0000     -21.024090      -572.0946
   4   1.0000     -21.021883      -572.0345
   5   1.0000     -21.021883      -572.0345
   6   1.0000      -3.034674       -82.5777
   7   1.0000      -1.992099       -54.2078
   8   1.0000      -1.986896       -54.0662
   9   1.0000      -1.986896       -54.0662
  10   1.0000      -1.199529       -32.6408
  11   1.0000      -0.490597       -13.3498
  12   1.0000      -0.476852       -12.9758
  13   1.0000      -0.476852       -12.9758
  14   1.0000      -0.351189        -9.5563
  15   1.0000      -0.351188        -9.5563
  16   1.0000      -0.338082        -9.1997
  17   1.0000      -0.338082        -9.1997
  18   1.0000      -0.287853        -7.8329
  19   0.0000      -0.011233        -0.3057
  20   0.0000       0.016558         0.4506
  21   0.0000       0.016558         0.4506
  22   0.0000       0.030216         0.8222
  23   0.0000       0.033637         0.9153

                 SPIN DOWN ORBITALS
  NO   OCC          E(Eh)            E(eV)
   0   1.0000    -215.607275     -5866.9722
   1   1.0000     -24.682416      -671.6427
   2   1.0000     -24.670995      -671.3319
   3   1.0000     -20.981061      -570.9237
   4   1.0000     -20.970607      -570.6392
   5   1.0000     -20.970607      -570.6392
   6   1.0000      -2.869652       -78.0872
   7   1.0000      -1.827125       -49.7186
   8   1.0000      -1.798693       -48.9449
   9   1.0000      -1.798693       -48.9449
  10   1.0000      -1.196817       -32.5671
  11   1.0000      -0.486707       -13.2440
  12   1.0000      -0.458901       -12.4873
  13   1.0000      -0.458901       -12.4873
  14   0.0000       0.005276         0.1436
  15   0.0000       0.030471         0.8292
  16   0.0000       0.030471         0.8292
  17   0.0000       0.033087         0.9003
  18   0.0000       0.048173         1.3109

MULLIKEN ATOMIC CHARGES AND SPIN POPULATIONS
--------------------------------------------
   0 Cr:    0.614930    4.991678
   1 F :   -0.614930    0.008322
Sum of atomic charges         :    0.0000000

LOEWDIN ATOMIC CHARGES AND SPIN POPULATIONS
-------------------------------------------
   0 Cr:    0.400548    4.864130
   1 F :   -0.400548    0.135870

  Mayer bond orders larger than 0.100000
B(  0-Cr,  1-F ) :   0.7016

FINAL SINGLE POINT ENERGY     -1144.215625259538

DIPOLE MOMENT
-------------
                                X             Y             Z
Electronic contribution:     -0.00000      -0.00000      -2.27080
Nuclear contribution   :      0.00000       0.00000       0.57299
                        -----------------------------------------
Total Dipole Moment    :     -0.00000      -0.00000      -1.69781
                        -----------------------------------------
Magnitude (a.u.)       :      1.69781
Magnitude (Debye)      :      4.31549

Rotational constants in cm-1:     0.000000     0.379469     0.379469
Rotational constants in MHz :     0.000000 11376.206933 11376.206933

                             ****ORCA TERMINATED NORMALLY****
TOTAL RUN TIME: 0 days 0 hours 4 minutes 45 seconds 642 msec
