                         Program Version 4.2.0 -  RELEASE  -
|  1> #
|  2> # 24_CrS wb97x-v/aug-cc-pvtz
|  3> #
|  4> ! wb97x-v aug-cc-pvtz def2/jk grid4 nofinalgrid
|  5>
|  6> *xyz 0 5
|  7>   Cr  0.00000000000000      0.00000000000000     -0.04064132858643
|  8>   S   0.00000000000000      0.00000000000000      2.04064132858643
|  9> *
| 10>
| 11> %pal
| 12> nprocs 24
| 13> end
| 14>
| 15>
| 16>                          ****END OF INPUT****

CARTESIAN COORDINATES (ANGSTROEM)
---------------------------------
  Cr     0.000000    0.000000   -0.040641
  S      0.000000    0.000000    2.040641

 Total Charge           Charge          ....    0
 Multiplicity           Mult            ....    5
 Number of Electrons    NEL             ....   40
 Basis Dimension        Dim             ....  143

ORBITAL ENERGIES
----------------
                 SPIN UP ORBITALS
  NO   OCC          E(Eh)            E(eV)
   0   1.0000    -215.618801     -5867.2859
   1   1.0000     -88.837962     -2417.4038
   2   1.0000     -24.751373      -673.5191
   3   1.0000     -21.033980      -572.3637
   4   1.0000     -21.033235      -572.3434
   5   1.0000     -21.029598      -572.2444
   6   1.0000      -7.994288      -217.5356
   7   1.0000      -5.947740      -161.8462
   8   1.0000      -5.945381      -161.7820
   9   1.0000      -5.944334      -161.7535
  10   1.0000      -3.041354       -82.7595
  11   1.0000      -1.998615       -54.3851
  12   1.0000      -1.995920       -54.3117
  13   1.0000      -1.991237       -54.1843
  14   1.0000      -0.730431       -19.8760
  15   1.0000      -0.391574       -10.6553
  16   1.0000      -0.390798       -10.6341
  17   1.0000      -0.359994        -9.7959
  18   1.0000      -0.359327        -9.7778
  19   1.0000      -0.351631        -9.5684
  20   1.0000      -0.305291        -8.3074
  21   1.0000      -0.286359        -7.7922
  22   0.0000      -0.041874        -1.1395
  23   0.0000      -0.031146        -0.8475
  24   0.0000       0.018880         0.5137
  25   0.0000       0.022324         0.6075
  26   0.0000       0.024314         0.6616

                 SPIN DOWN ORBITALS
  NO   OCC          E(Eh)            E(eV)
   0   1.0000    -215.617992     -5867.2638
   1   1.0000     -88.841607     -2417.5030
   2   1.0000     -24.693699      -671.9497
   3   1.0000     -20.990727      -571.1867
   4   1.0000     -20.986693      -571.0770
   5   1.0000     -20.978383      -570.8508
   6   1.0000      -7.997764      -217.6302
   7   1.0000      -5.958340      -162.1347
   8   1.0000      -5.949635      -161.8978
   9   1.0000      -5.946580      -161.8147
  10   1.0000      -2.880324       -78.3776
  11   1.0000      -1.833139       -49.8823
  12   1.0000      -1.819933       -49.5229
  13   1.0000      -1.802262       -49.0420
  14   1.0000      -0.762090       -20.7375
  15   1.0000      -0.364002        -9.9050
  16   1.0000      -0.359057        -9.7704
  17   1.0000      -0.331388        -9.0175
  18   0.0000      -0.022956        -0.6247
  19   0.0000       0.022460         0.6112
  20   0.0000       0.024870         0.6767
  21   0.0000       0.024903         0.6777
  22   0.0000       0.037242         1.0134

MULLIKEN ATOMIC CHARGES AND SPIN POPULATIONS
--------------------------------------------
   0 Cr:    0.329337    4.690641
   1 S :   -0.329337   -0.690641
Sum of atomic charges         :   -0.0000000

LOEWDIN ATOMIC CHARGES AND SPIN POPULATIONS
-------------------------------------------
   0 Cr:    0.059902    4.431445
   1 S :   -0.059902   -0.431445

  Mayer bond orders larger than 0.100000
B(  0-Cr,  1-S ) :   1.9037

FINAL SINGLE POINT ENERGY     -1442.469251265269

DIPOLE MOMENT
-------------
                                X             Y             Z
Electronic contribution:      0.00000       0.00000      -5.31353
Nuclear contribution   :      0.00000       0.00000       2.92710
                        -----------------------------------------
Total Dipole Moment    :      0.00000       0.00000      -2.38643
                        -----------------------------------------
Magnitude (a.u.)       :      2.38643
Magnitude (Debye)      :      6.06583

Rotational constants in cm-1:     0.000000     0.196226     0.196226
Rotational constants in MHz :     0.000000  5882.717555  5882.717555

                             ****ORCA TERMINATED NORMALLY****
TOTAL RUN TIME: 0 days 0 hours 8 minutes 17 seconds 769 msec
