                         Program Version 4.2.0 -  RELEASE  -
|  1> #
|  2> # 27_MnCl wb97x-v/aug-cc-pvtz
|  3> #
|  4> ! wb97x-v aug-cc-pvtz def2/jk grid4 nofinalgrid
|  5>
|  6> *xyz 0 7
|  7>   Mn  0.00000000000000      0.00000000000000     -0.11585879372688
|  8>   Cl  0.00000000000000      0.00000000000000      2.11585879372688
|  9> *
| 10>
| 11> %pal
| 12> nprocs 24
| 13> end
| 14>
| 15>
| 16>                          ****END OF INPUT****

CARTESIAN COORDINATES (ANGSTROEM)
---------------------------------
  Mn     0.000000    0.000000   -0.115859
  Cl     0.000000    0.000000    2.115859

 Total Charge           Charge          ....    0
 Multiplicity           Mult            ....    7
 Number of Electrons    NEL             ....   42
 Basis Dimension        Dim             ....  143

ORBITAL ENERGIES
----------------
                 SPIN UP ORBITALS
  NO   OCC          E(Eh)            E(eV)
   0   1.0000    -235.446640     -6406.8288
   1   1.0000    -101.507709     -2762.1652
   2   1.0000     -27.472737      -747.5712
   3   1.0000     -23.536310      -640.4556
   4   1.0000     -23.536310      -640.4556
   5   1.0000     -23.533688      -640.3842
   6   1.0000      -9.524196      -259.1666
   7   1.0000      -7.275602      -197.9792
   8   1.0000      -7.273668      -197.9266
   9   1.0000      -7.273668      -197.9266
  10   1.0000      -3.456612       -94.0592
  11   1.0000      -2.324370       -63.2493
  12   1.0000      -2.324370       -63.2493
  13   1.0000      -2.317364       -63.0587
  14   1.0000      -0.905913       -24.6511
  15   1.0000      -0.528613       -14.3843
  16   1.0000      -0.515799       -14.0356
  17   1.0000      -0.515799       -14.0356
  18   1.0000      -0.512875       -13.9560
  19   1.0000      -0.512873       -13.9560
  20   1.0000      -0.429190       -11.6789
  21   1.0000      -0.401267       -10.9190
  22   1.0000      -0.401267       -10.9190
  23   1.0000      -0.285518        -7.7693
  24   0.0000       0.007912         0.2153
  25   0.0000       0.007912         0.2153
  26   0.0000       0.022119         0.6019
  27   0.0000       0.029126         0.7925
  28   0.0000       0.048783         1.3275

                 SPIN DOWN ORBITALS
  NO   OCC          E(Eh)            E(eV)
   0   1.0000    -235.444471     -6406.7698
   1   1.0000    -101.506783     -2762.1400
   2   1.0000     -27.390371      -745.3299
   3   1.0000     -23.469110      -638.6269
   4   1.0000     -23.469110      -638.6269
   5   1.0000     -23.466955      -638.5683
   6   1.0000      -9.523307      -259.1424
   7   1.0000      -7.273949      -197.9342
   8   1.0000      -7.272460      -197.8937
   9   1.0000      -7.272460      -197.8937
  10   1.0000      -3.247747       -88.3757
  11   1.0000      -2.097340       -57.0715
  12   1.0000      -2.097340       -57.0715
  13   1.0000      -2.090790       -56.8933
  14   1.0000      -0.897983       -24.4354
  15   1.0000      -0.449538       -12.2325
  16   1.0000      -0.409766       -11.1503
  17   1.0000      -0.409766       -11.1503
  18   0.0000      -0.020357        -0.5539
  19   0.0000       0.014961         0.4071
  20   0.0000       0.014967         0.4073
  21   0.0000       0.025890         0.7045
  22   0.0000       0.025890         0.7045

MULLIKEN ATOMIC CHARGES AND SPIN POPULATIONS
--------------------------------------------
   0 Mn:    0.487154    5.871145
   1 Cl:   -0.487154    0.128855
Sum of atomic charges         :   -0.0000000

LOEWDIN ATOMIC CHARGES AND SPIN POPULATIONS
-------------------------------------------
   0 Mn:    0.117837    5.763599
   1 Cl:   -0.117837    0.236401

  Mayer bond orders larger than 0.100000
B(  0-Mn,  1-Cl) :   0.8859

FINAL SINGLE POINT ENERGY     -1611.070474355890

DIPOLE MOMENT
-------------
                                X             Y             Z
Electronic contribution:     -0.00000      -0.00000      -3.31538
Nuclear contribution   :      0.00000       0.00000       2.22337
                        -----------------------------------------
Total Dipole Moment    :     -0.00000      -0.00000      -1.09201
                        -----------------------------------------
Magnitude (a.u.)       :      1.09201
Magnitude (Debye)      :      2.77566

Rotational constants in cm-1:     0.000000     0.157077     0.157077
Rotational constants in MHz :     0.000000  4709.038991  4709.038991

                             ****ORCA TERMINATED NORMALLY****
TOTAL RUN TIME: 0 days 0 hours 4 minutes 31 seconds 73 msec
