                         Program Version 4.2.0 -  RELEASE  -
|  1> #
|  2> # 29_MnO wb97x-v/aug-cc-pvtz
|  3> #
|  4> ! wb97x-v aug-cc-pvtz def2/jk grid4 nofinalgrid
|  5>
|  6> *xyz 0 6
|  7>   Mn  0.00000000000000      0.00000000000000      0.18548662877309
|  8>   O   0.00000000000000      0.00000000000000      1.81451337122691
|  9> *
| 10>
| 11> %pal
| 12> nprocs 24
| 13> end
| 14>
| 15>
| 16>                          ****END OF INPUT****

CARTESIAN COORDINATES (ANGSTROEM)
---------------------------------
  Mn     0.000000    0.000000    0.185487
  O      0.000000    0.000000    1.814513

 Total Charge           Charge          ....    0
 Multiplicity           Mult            ....    6
 Number of Electrons    NEL             ....   33
 Basis Dimension        Dim             ....  139

ORBITAL ENERGIES
----------------
                 SPIN UP ORBITALS
  NO   OCC          E(Eh)            E(eV)
   0   1.0000    -235.405646     -6405.7133
   1   1.0000     -27.426895      -746.3237
   2   1.0000     -23.492369      -639.2599
   3   1.0000     -23.492369      -639.2599
   4   1.0000     -23.487127      -639.1172
   5   1.0000     -19.166937      -521.5589
   6   1.0000      -3.398063       -92.4660
   7   1.0000      -2.266284       -61.6687
   8   1.0000      -2.266284       -61.6687
   9   1.0000      -2.259282       -61.4782
  10   1.0000      -0.980719       -26.6867
  11   1.0000      -0.489759       -13.3270
  12   1.0000      -0.489759       -13.3270
  13   1.0000      -0.467843       -12.7307
  14   1.0000      -0.459131       -12.4936
  15   1.0000      -0.459131       -12.4936
  16   1.0000      -0.335729        -9.1356
  17   1.0000      -0.335729        -9.1356
  18   1.0000      -0.320715        -8.7271
  19   0.0000      -0.032176        -0.8756
  20   0.0000       0.017979         0.4892
  21   0.0000       0.017979         0.4892
  22   0.0000       0.023701         0.6449
  23   0.0000       0.035348         0.9619

                 SPIN DOWN ORBITALS
  NO   OCC          E(Eh)            E(eV)
   0   1.0000    -235.403787     -6405.6627
   1   1.0000     -27.355788      -744.3888
   2   1.0000     -23.435774      -637.7198
   3   1.0000     -23.431393      -637.6006
   4   1.0000     -23.431393      -637.6006
   5   1.0000     -19.164432      -521.4907
   6   1.0000      -3.219643       -87.6109
   7   1.0000      -2.083955       -56.7073
   8   1.0000      -2.064505       -56.1780
   9   1.0000      -2.064505       -56.1780
  10   1.0000      -0.969768       -26.3887
  11   1.0000      -0.419511       -11.4155
  12   1.0000      -0.381357       -10.3772
  13   1.0000      -0.381357       -10.3772
  14   0.0000      -0.020860        -0.5676
  15   0.0000       0.025495         0.6938
  16   0.0000       0.026798         0.7292
  17   0.0000       0.026798         0.7292
  18   0.0000       0.038701         1.0531

MULLIKEN ATOMIC CHARGES AND SPIN POPULATIONS
--------------------------------------------
   0 Mn:    0.676849    4.836610
   1 O :   -0.676849    0.163390
Sum of atomic charges         :   -0.0000000

LOEWDIN ATOMIC CHARGES AND SPIN POPULATIONS
-------------------------------------------
   0 Mn:    0.667190    4.718820
   1 O :   -0.667190    0.281180

  Mayer bond orders larger than 0.100000
B(  0-Mn,  1-O ) :   1.9788

FINAL SINGLE POINT ENERGY     -1226.059829677341

DIPOLE MOMENT
-------------
                                X             Y             Z
Electronic contribution:      0.00000      -0.00000      -3.90119
Nuclear contribution   :      0.00000       0.00000       1.71606
                        -----------------------------------------
Total Dipole Moment    :      0.00000      -0.00000      -2.18512
                        -----------------------------------------
Magnitude (a.u.)       :      2.18512
Magnitude (Debye)      :      5.55414

Rotational constants in cm-1:     0.000000     0.512677     0.512677
Rotational constants in MHz :     0.000000 15369.677147 15369.677147

                             ****ORCA TERMINATED NORMALLY****
TOTAL RUN TIME: 0 days 0 hours 5 minutes 18 seconds 230 msec
