                         Program Version 4.2.0 -  RELEASE  -
|  1> #
|  2> # 30_MnS wb97x-v/aug-cc-pvtz
|  3> #
|  4> ! wb97x-v aug-cc-pvtz def2/jk grid4 nofinalgrid
|  5>
|  6> *xyz 0 6
|  7>   Mn  0.00000000000000      0.00000000000000     -0.02260858554296
|  8>   S   0.00000000000000      0.00000000000000      2.02260858554296
|  9> *
| 10>
| 11> %pal
| 12> nprocs 24
| 13> end
| 14>
| 15>
| 16>                          ****END OF INPUT****

CARTESIAN COORDINATES (ANGSTROEM)
---------------------------------
  Mn     0.000000    0.000000   -0.022609
  S      0.000000    0.000000    2.022609

 Total Charge           Charge          ....    0
 Multiplicity           Mult            ....    6
 Number of Electrons    NEL             ....   41
 Basis Dimension        Dim             ....  143

ORBITAL ENERGIES
----------------
                 SPIN UP ORBITALS
  NO   OCC          E(Eh)            E(eV)
   0   1.0000    -235.414566     -6405.9560
   1   1.0000     -88.824139     -2417.0277
   2   1.0000     -27.433539      -746.5045
   3   1.0000     -23.498995      -639.4402
   4   1.0000     -23.498995      -639.4402
   5   1.0000     -23.494042      -639.3054
   6   1.0000      -7.980325      -217.1557
   7   1.0000      -5.933743      -161.4653
   8   1.0000      -5.932714      -161.4373
   9   1.0000      -5.932714      -161.4373
  10   1.0000      -3.411745       -92.8383
  11   1.0000      -2.280389       -62.0525
  12   1.0000      -2.280389       -62.0525
  13   1.0000      -2.273413       -61.8627
  14   1.0000      -0.744545       -20.2601
  15   1.0000      -0.479786       -13.0556
  16   1.0000      -0.479786       -13.0556
  17   1.0000      -0.473382       -12.8814
  18   1.0000      -0.473381       -12.8814
  19   1.0000      -0.470092       -12.7919
  20   1.0000      -0.335203        -9.1213
  21   1.0000      -0.303958        -8.2711
  22   1.0000      -0.303958        -8.2711
  23   0.0000      -0.055585        -1.5125
  24   0.0000       0.015647         0.4258
  25   0.0000       0.015647         0.4258
  26   0.0000       0.018368         0.4998
  27   0.0000       0.033901         0.9225

                 SPIN DOWN ORBITALS
  NO   OCC          E(Eh)            E(eV)
   0   1.0000    -235.413169     -6405.9180
   1   1.0000     -88.823833     -2417.0194
   2   1.0000     -27.359176      -744.4810
   3   1.0000     -23.437442      -637.7652
   4   1.0000     -23.436629      -637.7431
   5   1.0000     -23.436629      -637.7431
   6   1.0000      -7.980027      -217.1476
   7   1.0000      -5.936115      -161.5299
   8   1.0000      -5.930862      -161.3870
   9   1.0000      -5.930862      -161.3870
  10   1.0000      -3.223502       -87.7159
  11   1.0000      -2.077055       -56.5196
  12   1.0000      -2.071436       -56.3667
  13   1.0000      -2.071436       -56.3667
  14   1.0000      -0.738110       -20.0850
  15   1.0000      -0.368477       -10.0268
  16   1.0000      -0.323492        -8.8027
  17   1.0000      -0.323492        -8.8027
  18   0.0000      -0.048466        -1.3188
  19   0.0000       0.009859         0.2683
  20   0.0000       0.009980         0.2716
  21   0.0000       0.009980         0.2716
  22   0.0000       0.026853         0.7307

MULLIKEN ATOMIC CHARGES AND SPIN POPULATIONS
--------------------------------------------
   0 Mn:    0.416195    4.817700
   1 S :   -0.416195    0.182300
Sum of atomic charges         :   -0.0000000

LOEWDIN ATOMIC CHARGES AND SPIN POPULATIONS
-------------------------------------------
   0 Mn:    0.203865    4.766635
   1 S :   -0.203865    0.233365

  Mayer bond orders larger than 0.100000
B(  0-Mn,  1-S ) :   2.1465

FINAL SINGLE POINT ENERGY     -1549.016499018337

DIPOLE MOMENT
-------------
                                X             Y             Z
Electronic contribution:     -0.00000      -0.00000      -6.18435
Nuclear contribution   :      0.00000       0.00000       3.44465
                        -----------------------------------------
Total Dipole Moment    :     -0.00000      -0.00000      -2.73970
                        -----------------------------------------
Magnitude (a.u.)       :      2.73970
Magnitude (Debye)      :      6.96378

Rotational constants in cm-1:     0.000000     0.199061     0.199061
Rotational constants in MHz :     0.000000  5967.684062  5967.684062

                             ****ORCA TERMINATED NORMALLY****
TOTAL RUN TIME: 0 days 0 hours 5 minutes 46 seconds 833 msec
