                         Program Version 4.2.0 -  RELEASE  -
|  1> #
|  2> # 31_FeH wb97x-v/aug-cc-pvtz
|  3> #
|  4> ! wb97x-v aug-cc-pvtz def2/jk grid4 nofinalgrid
|  5>
|  6> *xyz 0 4
|  7>   Fe  0.00000000000000      0.00000000000000      0.22838748047068
|  8>   H   0.00000000000000      0.00000000000000      1.77161251952932
|  9> *
| 10>
| 11> %pal
| 12> nprocs 24
| 13> end
| 14>
| 15>
| 16>                          ****END OF INPUT****

CARTESIAN COORDINATES (ANGSTROEM)
---------------------------------
  Fe     0.000000    0.000000    0.228387
  H      0.000000    0.000000    1.771613

 Total Charge           Charge          ....    0
 Multiplicity           Mult            ....    4
 Number of Electrons    NEL             ....   27
 Basis Dimension        Dim             ....  116

ORBITAL ENERGIES
----------------
                 SPIN UP ORBITALS
  NO   OCC          E(Eh)            E(eV)
   0   1.0000    -255.919499     -6963.9236
   1   1.0000     -30.044658      -817.5567
   2   1.0000     -25.904080      -704.8858
   3   1.0000     -25.896654      -704.6838
   4   1.0000     -25.882395      -704.2958
   5   1.0000      -3.581956       -97.4700
   6   1.0000      -2.376654       -64.6720
   7   1.0000      -2.364026       -64.3284
   8   1.0000      -2.337490       -63.6063
   9   1.0000      -0.423728       -11.5302
  10   1.0000      -0.409458       -11.1419
  11   1.0000      -0.400666       -10.9027
  12   1.0000      -0.397893       -10.8272
  13   1.0000      -0.365917        -9.9571
  14   1.0000      -0.317310        -8.6344
  15   0.0000      -0.014187        -0.3860
  16   0.0000       0.020662         0.5622
  17   0.0000       0.022417         0.6100
  18   0.0000       0.029677         0.8076
  19   0.0000       0.037256         1.0138

                 SPIN DOWN ORBITALS
  NO   OCC          E(Eh)            E(eV)
   0   1.0000    -255.918925     -6963.9080
   1   1.0000     -29.988124      -816.0183
   2   1.0000     -25.853682      -703.5144
   3   1.0000     -25.848539      -703.3745
   4   1.0000     -25.843943      -703.2494
   5   1.0000      -3.445681       -93.7618
   6   1.0000      -2.211835       -60.1871
   7   1.0000      -2.211492       -60.1778
   8   1.0000      -2.209985       -60.1368
   9   1.0000      -0.388694       -10.5769
  10   1.0000      -0.300468        -8.1762
  11   1.0000      -0.270372        -7.3572
  12   0.0000      -0.005974        -0.1626
  13   0.0000       0.020390         0.5548
  14   0.0000       0.021242         0.5780
  15   0.0000       0.028903         0.7865
  16   0.0000       0.037081         1.0090

MULLIKEN ATOMIC CHARGES AND SPIN POPULATIONS
--------------------------------------------
   0 Fe:    0.106779    3.085055
   1 H :   -0.106779   -0.085055
Sum of atomic charges         :   -0.0000000

LOEWDIN ATOMIC CHARGES AND SPIN POPULATIONS
-------------------------------------------
   0 Fe:    0.685259    2.997495
   1 H :   -0.685259    0.002505

  Mayer bond orders larger than 0.100000
B(  0-Fe,  1-H ) :   1.0689

FINAL SINGLE POINT ENERGY     -1264.113964628574

DIPOLE MOMENT
-------------
                                X             Y             Z
Electronic contribution:      0.00000       0.00000      -2.72015
Nuclear contribution   :      0.00000       0.00000       1.52035
                        -----------------------------------------
Total Dipole Moment    :      0.00000       0.00000      -1.19980
                        -----------------------------------------
Magnitude (a.u.)       :      1.19980
Magnitude (Debye)      :      3.04965

Rotational constants in cm-1:     0.000000     7.149016     7.149016
Rotational constants in MHz :     0.000000 214322.097628 214322.097628

                             ****ORCA TERMINATED NORMALLY****
TOTAL RUN TIME: 0 days 0 hours 19 minutes 18 seconds 872 msec
