                         Program Version 4.2.0 -  RELEASE  -
|  1> #
|  2> # 33_FeCl wb97x-v/aug-cc-pvtz
|  3> #
|  4> ! wb97x-v aug-cc-pvtz def2/jk grid4 nofinalgrid
|  5>
|  6> *xyz 0 6
|  7>   Fe  0.00000000000000      0.00000000000000     -0.08894892709089
|  8>   Cl  0.00000000000000      0.00000000000000      2.08894892709089
|  9> *
| 10>
| 11> %pal
| 12> nprocs 24
| 13> end
| 14>
| 15>
| 16>                          ****END OF INPUT****

CARTESIAN COORDINATES (ANGSTROEM)
---------------------------------
  Fe     0.000000    0.000000   -0.088949
  Cl     0.000000    0.000000    2.088949

 Total Charge           Charge          ....    0
 Multiplicity           Mult            ....    6
 Number of Electrons    NEL             ....   43
 Basis Dimension        Dim             ....  143

ORBITAL ENERGIES
----------------
                 SPIN UP ORBITALS
  NO   OCC          E(Eh)            E(eV)
   0   1.0000    -256.052909     -6967.5539
   1   1.0000    -101.520783     -2762.5209
   2   1.0000     -30.196902      -821.6995
   3   1.0000     -26.062400      -709.1940
   4   1.0000     -26.034572      -708.4367
   5   1.0000     -26.034572      -708.4367
   6   1.0000      -9.537240      -259.5215
   7   1.0000      -7.288957      -198.3426
   8   1.0000      -7.286692      -198.2810
   9   1.0000      -7.286692      -198.2810
  10   1.0000      -3.739917      -101.7683
  11   1.0000      -2.551194       -69.4215
  12   1.0000      -2.497075       -67.9489
  13   1.0000      -2.497075       -67.9489
  14   1.0000      -0.920650       -25.0522
  15   1.0000      -0.569075       -15.4853
  16   1.0000      -0.553639       -15.0653
  17   1.0000      -0.553639       -15.0653
  18   1.0000      -0.527368       -14.3504
  19   1.0000      -0.493753       -13.4357
  20   1.0000      -0.450428       -12.2568
  21   1.0000      -0.414699       -11.2845
  22   1.0000      -0.414699       -11.2845
  23   1.0000      -0.289231        -7.8704
  24   0.0000       0.012586         0.3425
  25   0.0000       0.012586         0.3425
  26   0.0000       0.024254         0.6600
  27   0.0000       0.029701         0.8082
  28   0.0000       0.053284         1.4499

                 SPIN DOWN ORBITALS
  NO   OCC          E(Eh)            E(eV)
   0   1.0000    -256.050757     -6967.4953
   1   1.0000    -101.519523     -2762.4867
   2   1.0000     -30.122750      -819.6817
   3   1.0000     -25.992255      -707.2852
   4   1.0000     -25.979670      -706.9428
   5   1.0000     -25.979670      -706.9428
   6   1.0000      -9.536042      -259.4889
   7   1.0000      -7.286694      -198.2810
   8   1.0000      -7.285034      -198.2358
   9   1.0000      -7.285034      -198.2358
  10   1.0000      -3.563363       -96.9640
  11   1.0000      -2.326100       -63.2964
  12   1.0000      -2.323776       -63.2332
  13   1.0000      -2.323776       -63.2332
  14   1.0000      -0.910442       -24.7744
  15   1.0000      -0.466444       -12.6926
  16   1.0000      -0.420493       -11.4422
  17   1.0000      -0.420493       -11.4422
  18   1.0000      -0.406982       -11.0746
  19   0.0000      -0.045485        -1.2377
  20   0.0000      -0.013796        -0.3754
  21   0.0000      -0.013796        -0.3754
  22   0.0000       0.005638         0.1534
  23   0.0000       0.010617         0.2889

MULLIKEN ATOMIC CHARGES AND SPIN POPULATIONS
--------------------------------------------
   0 Fe:    0.455506    4.827118
   1 Cl:   -0.455506    0.172882
Sum of atomic charges         :   -0.0000000

LOEWDIN ATOMIC CHARGES AND SPIN POPULATIONS
-------------------------------------------
   0 Fe:    0.087822    4.730253
   1 Cl:   -0.087822    0.269747

  Mayer bond orders larger than 0.100000
B(  0-Fe,  1-Cl) :   0.9314

FINAL SINGLE POINT ENERGY     -1723.753207926227

DIPOLE MOMENT
-------------
                                X             Y             Z
Electronic contribution:     -0.00000       0.00000      -2.12837
Nuclear contribution   :      0.00000       0.00000       1.24736
                        -----------------------------------------
Total Dipole Moment    :     -0.00000       0.00000      -0.88101
                        -----------------------------------------
Magnitude (a.u.)       :      0.88101
Magnitude (Debye)      :      2.23935

Rotational constants in cm-1:     0.000000     0.163882     0.163882
Rotational constants in MHz :     0.000000  4913.053230  4913.053230

                             ****ORCA TERMINATED NORMALLY****
TOTAL RUN TIME: 0 days 0 hours 4 minutes 48 seconds 914 msec
