                         Program Version 4.2.0 -  RELEASE  -
|  1> #
|  2> # 35_FeO wb97x-v/aug-cc-pvtz
|  3> #
|  4> ! wb97x-v aug-cc-pvtz def2/jk grid4 nofinalgrid
|  5>
|  6> *xyz 0 5
|  7>   Fe  0.00000000000000      0.00000000000000      0.19611340956582
|  8>   O   0.00000000000000      0.00000000000000      1.80388659043418
|  9> *
| 10>
| 11> %pal
| 12> nprocs 24
| 13> end
| 14>
| 15>
| 16>                          ****END OF INPUT****

CARTESIAN COORDINATES (ANGSTROEM)
---------------------------------
  Fe     0.000000    0.000000    0.196113
  O      0.000000    0.000000    1.803887

 Total Charge           Charge          ....    0
 Multiplicity           Mult            ....    5
 Number of Electrons    NEL             ....   34
 Basis Dimension        Dim             ....  139

ORBITAL ENERGIES
----------------
                 SPIN UP ORBITALS
  NO   OCC          E(Eh)            E(eV)
   0   1.0000    -255.976589     -6965.4771
   1   1.0000     -30.109577      -819.3232
   2   1.0000     -25.971775      -706.7279
   3   1.0000     -25.951677      -706.1810
   4   1.0000     -25.951677      -706.1810
   5   1.0000     -19.169952      -521.6409
   6   1.0000      -3.643689       -99.1498
   7   1.0000      -2.451318       -66.7037
   8   1.0000      -2.405015       -65.4438
   9   1.0000      -2.405015       -65.4438
  10   1.0000      -0.990243       -26.9459
  11   1.0000      -0.493572       -13.4308
  12   1.0000      -0.493572       -13.4308
  13   1.0000      -0.485809       -13.2195
  14   1.0000      -0.444229       -12.0881
  15   1.0000      -0.411551       -11.1989
  16   1.0000      -0.341893        -9.3034
  17   1.0000      -0.341893        -9.3034
  18   1.0000      -0.331101        -9.0097
  19   0.0000      -0.038539        -1.0487
  20   0.0000       0.020866         0.5678
  21   0.0000       0.020866         0.5678
  22   0.0000       0.024552         0.6681
  23   0.0000       0.037304         1.0151

                 SPIN DOWN ORBITALS
  NO   OCC          E(Eh)            E(eV)
   0   1.0000    -255.974927     -6965.4319
   1   1.0000     -30.049266      -817.6821
   2   1.0000     -25.919653      -705.3096
   3   1.0000     -25.904596      -704.8999
   4   1.0000     -25.904596      -704.8999
   5   1.0000     -19.161834      -521.4200
   6   1.0000      -3.501541       -95.2818
   7   1.0000      -2.281061       -62.0708
   8   1.0000      -2.260660       -61.5157
   9   1.0000      -2.260660       -61.5157
  10   1.0000      -0.963294       -26.2126
  11   1.0000      -0.415480       -11.3058
  12   1.0000      -0.376133       -10.2351
  13   1.0000      -0.376133       -10.2351
  14   1.0000      -0.343312        -9.3420
  15   0.0000      -0.040175        -1.0932
  16   0.0000       0.019435         0.5288
  17   0.0000       0.019435         0.5288
  18   0.0000       0.020363         0.5541
  19   0.0000       0.037432         1.0186

MULLIKEN ATOMIC CHARGES AND SPIN POPULATIONS
--------------------------------------------
   0 Fe:    0.678097    3.576539
   1 O :   -0.678097    0.423461
Sum of atomic charges         :   -0.0000000

LOEWDIN ATOMIC CHARGES AND SPIN POPULATIONS
-------------------------------------------
   0 Fe:    0.645228    3.531550
   1 O :   -0.645228    0.468450

  Mayer bond orders larger than 0.100000
B(  0-Fe,  1-O ) :   1.9996

FINAL SINGLE POINT ENERGY     -1338.755032433102

DIPOLE MOMENT
-------------
                                X             Y             Z
Electronic contribution:      0.00000      -0.00000      -3.61278
Nuclear contribution   :      0.00000       0.00000       1.30353
                        -----------------------------------------
Total Dipole Moment    :      0.00000      -0.00000      -2.30925
                        -----------------------------------------
Magnitude (a.u.)       :      2.30925
Magnitude (Debye)      :      5.86965

Rotational constants in cm-1:     0.000000     0.524387     0.524387
Rotational constants in MHz :     0.000000 15720.731712 15720.731712

                             ****ORCA TERMINATED NORMALLY****
TOTAL RUN TIME: 0 days 0 hours 5 minutes 41 seconds 468 msec
