                         Program Version 4.2.0 -  RELEASE  -
|  1> #
|  2> # 37_CoH wb97x-v/aug-cc-pvtz
|  3> #
|  4> ! wb97x-v aug-cc-pvtz def2/jk grid4 nofinalgrid
|  5>
|  6> *xyz 0 3
|  7>   Co  0.00000000000000      0.00000000000000      0.23964953556340
|  8>   H   0.00000000000000      0.00000000000000      1.76035046443660
|  9> *
| 10>
| 11> %pal
| 12> nprocs 24
| 13> end
| 14>
| 15>
| 16>                          ****END OF INPUT****

CARTESIAN COORDINATES (ANGSTROEM)
---------------------------------
  Co     0.000000    0.000000    0.239650
  H      0.000000    0.000000    1.760350

 Total Charge           Charge          ....    0
 Multiplicity           Mult            ....    3
 Number of Electrons    NEL             ....   28
 Basis Dimension        Dim             ....  116

ORBITAL ENERGIES
----------------
                 SPIN UP ORBITALS
  NO   OCC          E(Eh)            E(eV)
   0   1.0000    -277.330955     -7546.5589
   1   1.0000     -32.816098      -892.9714
   2   1.0000     -28.450433      -774.1756
   3   1.0000     -28.450433      -774.1756
   4   1.0000     -28.449393      -774.1474
   5   1.0000      -3.804753      -103.5326
   6   1.0000      -2.491054       -67.7850
   7   1.0000      -2.491053       -67.7850
   8   1.0000      -2.490759       -67.7770
   9   1.0000      -0.409390       -11.1401
  10   1.0000      -0.375166       -10.2088
  11   1.0000      -0.343041        -9.3346
  12   1.0000      -0.343040        -9.3346
  13   1.0000      -0.341116        -9.2822
  14   1.0000      -0.312291        -8.4979
  15   0.0000      -0.007890        -0.2147
  16   0.0000       0.023610         0.6425
  17   0.0000       0.023610         0.6425
  18   0.0000       0.030914         0.8412
  19   0.0000       0.041482         1.1288

                 SPIN DOWN ORBITALS
  NO   OCC          E(Eh)            E(eV)
   0   1.0000    -277.330270     -7546.5403
   1   1.0000     -32.779801      -891.9837
   2   1.0000     -28.422789      -773.4234
   3   1.0000     -28.420076      -773.3496
   4   1.0000     -28.420076      -773.3496
   5   1.0000      -3.720686      -101.2450
   6   1.0000      -2.401746       -65.3548
   7   1.0000      -2.398974       -65.2794
   8   1.0000      -2.398973       -65.2794
   9   1.0000      -0.375023       -10.2049
  10   1.0000      -0.302864        -8.2414
  11   1.0000      -0.302864        -8.2414
  12   1.0000      -0.302325        -8.2267
  13   0.0000      -0.014346        -0.3904
  14   0.0000       0.027173         0.7394
  15   0.0000       0.027173         0.7394
  16   0.0000       0.031128         0.8470
  17   0.0000       0.038630         1.0512

MULLIKEN ATOMIC CHARGES AND SPIN POPULATIONS
--------------------------------------------
   0 Co:    0.086872    2.061269
   1 H :   -0.086872   -0.061269
Sum of atomic charges         :   -0.0000000

LOEWDIN ATOMIC CHARGES AND SPIN POPULATIONS
-------------------------------------------
   0 Co:    0.616587    1.986852
   1 H :   -0.616587    0.013148

  Mayer bond orders larger than 0.100000
B(  0-Co,  1-H ) :   1.0334

FINAL SINGLE POINT ENERGY     -1383.186188880325

DIPOLE MOMENT
-------------
                                X             Y             Z
Electronic contribution:     -0.00000      -0.00000      -2.83763
Nuclear contribution   :      0.00000       0.00000       1.52052
                        -----------------------------------------
Total Dipole Moment    :     -0.00000      -0.00000      -1.31711
                        -----------------------------------------
Magnitude (a.u.)       :      1.31711
Magnitude (Debye)      :      3.34784

Rotational constants in cm-1:     0.000000     7.355540     7.355540
Rotational constants in MHz :     0.000000 220513.537195 220513.537195

                             ****ORCA TERMINATED NORMALLY****
TOTAL RUN TIME: 0 days 0 hours 4 minutes 39 seconds 716 msec
