                         Program Version 4.2.0 -  RELEASE  -
|  1> #
|  2> # 39_CoCl wb97x-v/aug-cc-pvtz
|  3> #
|  4> ! wb97x-v aug-cc-pvtz def2/jk grid4 nofinalgrid
|  5>
|  6> *xyz 0 3
|  7>   Co  0.00000000000000      0.00000000000000     -0.04491550120186
|  8>   Cl  0.00000000000000      0.00000000000000      2.04491550120186
|  9> *
| 10>
| 11> %pal
| 12> nprocs 24
| 13> end
| 14>
| 15>
| 16>                          ****END OF INPUT****

CARTESIAN COORDINATES (ANGSTROEM)
---------------------------------
  Co     0.000000    0.000000   -0.044916
  Cl     0.000000    0.000000    2.044916

 Total Charge           Charge          ....    0
 Multiplicity           Mult            ....    3
 Number of Electrons    NEL             ....   44
 Basis Dimension        Dim             ....  143

ORBITAL ENERGIES
----------------
                 SPIN UP ORBITALS
  NO   OCC          E(Eh)            E(eV)
   0   1.0000    -277.442349     -7549.5901
   1   1.0000    -101.500410     -2761.9666
   2   1.0000     -32.941326      -896.3790
   3   1.0000     -28.591843      -778.0236
   4   1.0000     -28.591843      -778.0236
   5   1.0000     -28.536350      -776.5136
   6   1.0000      -9.515923      -258.9414
   7   1.0000      -7.268381      -197.7827
   8   1.0000      -7.264605      -197.6800
   9   1.0000      -7.264605      -197.6800
  10   1.0000      -3.934592      -107.0657
  11   1.0000      -2.653349       -72.2013
  12   1.0000      -2.653349       -72.2013
  13   1.0000      -2.549880       -69.3858
  14   1.0000      -0.891596       -24.2616
  15   1.0000      -0.516142       -14.0449
  16   1.0000      -0.516141       -14.0449
  17   1.0000      -0.480892       -13.0857
  18   1.0000      -0.461147       -12.5484
  19   1.0000      -0.461147       -12.5484
  20   1.0000      -0.384713       -10.4686
  21   1.0000      -0.375908       -10.2290
  22   1.0000      -0.375908       -10.2290
  23   0.0000      -0.045980        -1.2512
  24   0.0000       0.025019         0.6808
  25   0.0000       0.025019         0.6808
  26   0.0000       0.030319         0.8250
  27   0.0000       0.038141         1.0379

                 SPIN DOWN ORBITALS
  NO   OCC          E(Eh)            E(eV)
   0   1.0000    -277.442169     -7549.5852
   1   1.0000    -101.500460     -2761.9679
   2   1.0000     -32.892848      -895.0599
   3   1.0000     -28.543686      -776.7132
   4   1.0000     -28.543686      -776.7132
   5   1.0000     -28.515565      -775.9480
   6   1.0000      -9.515976      -258.9429
   7   1.0000      -7.268553      -197.7874
   8   1.0000      -7.264630      -197.6806
   9   1.0000      -7.264630      -197.6806
  10   1.0000      -3.823927      -104.0544
  11   1.0000      -2.503490       -68.1234
  12   1.0000      -2.503490       -68.1234
  13   1.0000      -2.491742       -67.8038
  14   1.0000      -0.891306       -24.2537
  15   1.0000      -0.446632       -12.1535
  16   1.0000      -0.428565       -11.6619
  17   1.0000      -0.428565       -11.6619
  18   1.0000      -0.353887        -9.6298
  19   1.0000      -0.353887        -9.6298
  20   1.0000      -0.312525        -8.5042
  21   0.0000      -0.023578        -0.6416
  22   0.0000      -0.014801        -0.4027
  23   0.0000      -0.014800        -0.4027
  24   0.0000       0.020750         0.5646
  25   0.0000       0.020750         0.5646

MULLIKEN ATOMIC CHARGES AND SPIN POPULATIONS
--------------------------------------------
   0 Co:    0.508239    2.003518
   1 Cl:   -0.508239   -0.003518
Sum of atomic charges         :   -0.0000000

LOEWDIN ATOMIC CHARGES AND SPIN POPULATIONS
-------------------------------------------
   0 Co:    0.127409    2.039199
   1 Cl:   -0.127409   -0.039199

  Mayer bond orders larger than 0.100000
B(  0-Co,  1-Cl) :   1.0095

FINAL SINGLE POINT ENERGY     -1842.791169009304

DIPOLE MOMENT
-------------
                                X             Y             Z
Electronic contribution:     -0.00000      -0.00000      -3.76972
Nuclear contribution   :      0.00000       0.00000       1.86529
                        -----------------------------------------
Total Dipole Moment    :     -0.00000      -0.00000      -1.90443
                        -----------------------------------------
Magnitude (a.u.)       :      1.90443
Magnitude (Debye)      :      4.84068

Rotational constants in cm-1:     0.000000     0.174373     0.174373
Rotational constants in MHz :     0.000000  5227.567081  5227.567081

                             ****ORCA TERMINATED NORMALLY****
TOTAL RUN TIME: 0 days 0 hours 15 minutes 39 seconds 207 msec
