                         Program Version 4.2.0 -  RELEASE  -
|  1> #
|  2> # 42_CoS wb97x-v/aug-cc-pvtz
|  3> #
|  4> ! wb97x-v aug-cc-pvtz def2/jk grid4 nofinalgrid
|  5>
|  6> *xyz 0 4
|  7>   Co  0.00000000000000      0.00000000000000      0.00920129654260
|  8>   S   0.00000000000000      0.00000000000000      1.99079870345740
|  9> *
| 10>
| 11> %pal
| 12> nprocs 24
| 13> end
| 14>
| 15>
| 16>                          ****END OF INPUT****

CARTESIAN COORDINATES (ANGSTROEM)
---------------------------------
  Co     0.000000    0.000000    0.009201
  S      0.000000    0.000000    1.990799

 Total Charge           Charge          ....    0
 Multiplicity           Mult            ....    4
 Number of Electrons    NEL             ....   43
 Basis Dimension        Dim             ....  143

ORBITAL ENERGIES
----------------
                 SPIN UP ORBITALS
  NO   OCC          E(Eh)            E(eV)
   0   1.0000    -277.449261     -7549.7782
   1   1.0000     -88.857643     -2417.9394
   2   1.0000     -32.952638      -896.6869
   3   1.0000     -28.586557      -777.8798
   4   1.0000     -28.586557      -777.8798
   5   1.0000     -28.579346      -777.6835
   6   1.0000      -8.012214      -218.0234
   7   1.0000      -5.966726      -162.3629
   8   1.0000      -5.966726      -162.3629
   9   1.0000      -5.964523      -162.3029
  10   1.0000      -3.941428      -107.2517
  11   1.0000      -2.628935       -71.5370
  12   1.0000      -2.628935       -71.5370
  13   1.0000      -2.620623       -71.3108
  14   1.0000      -0.779165       -21.2022
  15   1.0000      -0.496970       -13.5232
  16   1.0000      -0.496970       -13.5232
  17   1.0000      -0.495664       -13.4877
  18   1.0000      -0.476687       -12.9713
  19   1.0000      -0.459516       -12.5041
  20   1.0000      -0.351578        -9.5669
  21   1.0000      -0.334410        -9.0997
  22   1.0000      -0.334410        -9.0997
  23   0.0000      -0.046431        -1.2634
  24   0.0000       0.024247         0.6598
  25   0.0000       0.024247         0.6598
  26   0.0000       0.026345         0.7169
  27   0.0000       0.038051         1.0354

                 SPIN DOWN ORBITALS
  NO   OCC          E(Eh)            E(eV)
   0   1.0000    -277.448616     -7549.7607
   1   1.0000     -88.854257     -2417.8473
   2   1.0000     -32.902320      -895.3176
   3   1.0000     -28.544592      -776.7378
   4   1.0000     -28.544592      -776.7378
   5   1.0000     -28.541614      -776.6568
   6   1.0000      -8.008985      -217.9356
   7   1.0000      -5.962508      -162.2481
   8   1.0000      -5.959788      -162.1741
   9   1.0000      -5.959788      -162.1741
  10   1.0000      -3.829030      -104.1932
  11   1.0000      -2.509347       -68.2828
  12   1.0000      -2.501858       -68.0790
  13   1.0000      -2.501858       -68.0790
  14   1.0000      -0.748520       -20.3683
  15   1.0000      -0.427375       -11.6295
  16   1.0000      -0.408364       -11.1121
  17   1.0000      -0.343935        -9.3590
  18   1.0000      -0.343935        -9.3590
  19   1.0000      -0.333144        -9.0653
  20   0.0000      -0.037182        -1.0118
  21   0.0000      -0.025074        -0.6823
  22   0.0000      -0.025074        -0.6823
  23   0.0000       0.011694         0.3182
  24   0.0000       0.028291         0.7698

MULLIKEN ATOMIC CHARGES AND SPIN POPULATIONS
--------------------------------------------
   0 Co:    0.336882    2.279680
   1 S :   -0.336882    0.720320
Sum of atomic charges         :   -0.0000000

LOEWDIN ATOMIC CHARGES AND SPIN POPULATIONS
-------------------------------------------
   0 Co:    0.086601    2.374853
   1 S :   -0.086601    0.625147

  Mayer bond orders larger than 0.100000
B(  0-Co,  1-S ) :   2.3303

FINAL SINGLE POINT ENERGY     -1780.770626850229

DIPOLE MOMENT
-------------
                                X             Y             Z
Electronic contribution:      0.00000       0.00000      -5.36787
Nuclear contribution   :      0.00000       0.00000       3.17962
                        -----------------------------------------
Total Dipole Moment    :      0.00000       0.00000      -2.18825
                        -----------------------------------------
Magnitude (a.u.)       :      2.18825
Magnitude (Debye)      :      5.56208

Rotational constants in cm-1:     0.000000     0.206757     0.206757
Rotational constants in MHz :     0.000000  6198.412278  6198.412278

                             ****ORCA TERMINATED NORMALLY****
TOTAL RUN TIME: 0 days 0 hours 5 minutes 39 seconds 346 msec
