                         Program Version 4.2.0 -  RELEASE  -
|  1> #
|  2> # 44_NiF wb97x-v/aug-cc-pvtz
|  3> #
|  4> ! wb97x-v aug-cc-pvtz def2/jk grid4 nofinalgrid
|  5>
|  6> *xyz 0 2
|  7>   Ni  0.00000000000000      0.00000000000000      0.12374716283349
|  8>   F   0.00000000000000      0.00000000000000      1.87625283716651
|  9> *
| 10>
| 11> %pal
| 12> nprocs 24
| 13> end
| 14>
| 15>
| 16>                          ****END OF INPUT****

CARTESIAN COORDINATES (ANGSTROEM)
---------------------------------
  Ni     0.000000    0.000000    0.123747
  F      0.000000    0.000000    1.876253

 Total Charge           Charge          ....    0
 Multiplicity           Mult            ....    2
 Number of Electrons    NEL             ....   37
 Basis Dimension        Dim             ....  139

ORBITAL ENERGIES
----------------
                 SPIN UP ORBITALS
  NO   OCC          E(Eh)            E(eV)
   0   1.0000    -299.691770     -8155.0277
   1   1.0000     -35.802939      -974.2475
   2   1.0000     -31.229570      -849.7998
   3   1.0000     -31.227361      -849.7397
   4   1.0000     -31.197391      -848.9242
   5   1.0000     -24.664713      -671.1610
   6   1.0000      -4.140705      -112.6743
   7   1.0000      -2.757922       -75.0469
   8   1.0000      -2.748708       -74.7962
   9   1.0000      -2.689566       -73.1868
  10   1.0000      -1.191625       -32.4258
  11   1.0000      -0.506701       -13.7880
  12   1.0000      -0.491328       -13.3697
  13   1.0000      -0.465626       -12.6703
  14   1.0000      -0.411692       -11.2027
  15   1.0000      -0.396894       -10.8000
  16   1.0000      -0.392508       -10.6807
  17   1.0000      -0.371521       -10.1096
  18   1.0000      -0.365847        -9.9552
  19   0.0000      -0.040378        -1.0987
  20   0.0000       0.025811         0.7023
  21   0.0000       0.027514         0.7487
  22   0.0000       0.029970         0.8155
  23   0.0000       0.042101         1.1456

                 SPIN DOWN ORBITALS
  NO   OCC          E(Eh)            E(eV)
   0   1.0000    -299.691635     -8155.0240
   1   1.0000     -35.778791      -973.5904
   2   1.0000     -31.203491      -849.0902
   3   1.0000     -31.203265      -849.0840
   4   1.0000     -31.189460      -848.7084
   5   1.0000     -24.662937      -671.1126
   6   1.0000      -4.088390      -111.2507
   7   1.0000      -2.682276       -72.9884
   8   1.0000      -2.678763       -72.8928
   9   1.0000      -2.665582       -72.5342
  10   1.0000      -1.186776       -32.2938
  11   1.0000      -0.494961       -13.4686
  12   1.0000      -0.458800       -12.4846
  13   1.0000      -0.444282       -12.0895
  14   1.0000      -0.375371       -10.2144
  15   1.0000      -0.365288        -9.9400
  16   1.0000      -0.349379        -9.5071
  17   1.0000      -0.330605        -8.9962
  18   0.0000      -0.033482        -0.9111
  19   0.0000       0.017812         0.4847
  20   0.0000       0.025545         0.6951
  21   0.0000       0.030217         0.8223
  22   0.0000       0.038598         1.0503

MULLIKEN ATOMIC CHARGES AND SPIN POPULATIONS
--------------------------------------------
   0 Ni:    0.675556    0.949560
   1 F :   -0.675556    0.050440
Sum of atomic charges         :    0.0000000

LOEWDIN ATOMIC CHARGES AND SPIN POPULATIONS
-------------------------------------------
   0 Ni:    0.463241    0.944521
   1 F :   -0.463241    0.055479

  Mayer bond orders larger than 0.100000
B(  0-Ni,  1-F ) :   0.6757

FINAL SINGLE POINT ENERGY     -1608.045159190770

DIPOLE MOMENT
-------------
                                X             Y             Z
Electronic contribution:      0.00000      -0.00000      -1.90898
Nuclear contribution   :      0.00000       0.00000      -0.15532
                        -----------------------------------------
Total Dipole Moment    :      0.00000      -0.00000      -2.06430
                        -----------------------------------------
Magnitude (a.u.)       :      2.06430
Magnitude (Debye)      :      5.24704

Rotational constants in cm-1:     0.000000     0.382421     0.382421
Rotational constants in MHz :     0.000000 11464.697327 11464.697327

                             ****ORCA TERMINATED NORMALLY****
TOTAL RUN TIME: 0 days 0 hours 6 minutes 9 seconds 711 msec
