                         Program Version 4.2.0 -  RELEASE  -
|  1> #
|  2> # 45_NiCl wb97x-v/aug-cc-pvtz
|  3> #
|  4> ! wb97x-v aug-cc-pvtz def2/jk grid4 nofinalgrid
|  5>
|  6> *xyz 0 2
|  7>   Ni  0.00000000000000      0.00000000000000     -0.04672403924217
|  8>   Cl  0.00000000000000      0.00000000000000      2.04672403924217
|  9> *
| 10>
| 11> %pal
| 12> nprocs 24
| 13> end
| 14>
| 15>
| 16>                          ****END OF INPUT****

CARTESIAN COORDINATES (ANGSTROEM)
---------------------------------
  Ni     0.000000    0.000000   -0.046724
  Cl     0.000000    0.000000    2.046724

 Total Charge           Charge          ....    0
 Multiplicity           Mult            ....    2
 Number of Electrons    NEL             ....   45
 Basis Dimension        Dim             ....  143

ORBITAL ENERGIES
----------------
                 SPIN UP ORBITALS
  NO   OCC          E(Eh)            E(eV)
   0   1.0000    -299.694043     -8155.0895
   1   1.0000    -101.494192     -2761.7974
   2   1.0000     -35.802555      -974.2370
   3   1.0000     -31.229224      -849.7904
   4   1.0000     -31.228555      -849.7722
   5   1.0000     -31.196523      -848.9005
   6   1.0000      -9.509485      -258.7663
   7   1.0000      -7.261665      -197.5999
   8   1.0000      -7.259043      -197.5286
   9   1.0000      -7.257926      -197.4982
  10   1.0000      -4.139814      -112.6501
  11   1.0000      -2.756394       -75.0053
  12   1.0000      -2.750558       -74.8465
  13   1.0000      -2.687343       -73.1263
  14   1.0000      -0.884962       -24.0810
  15   1.0000      -0.472789       -12.8652
  16   1.0000      -0.466779       -12.7017
  17   1.0000      -0.427094       -11.6218
  18   1.0000      -0.397359       -10.8127
  19   1.0000      -0.393992       -10.7211
  20   1.0000      -0.377577       -10.2744
  21   1.0000      -0.367435        -9.9984
  22   1.0000      -0.358182        -9.7466
  23   0.0000      -0.041687        -1.1344
  24   0.0000       0.024625         0.6701
  25   0.0000       0.026221         0.7135
  26   0.0000       0.028276         0.7694
  27   0.0000       0.039303         1.0695

                 SPIN DOWN ORBITALS
  NO   OCC          E(Eh)            E(eV)
   0   1.0000    -299.693830     -8155.0837
   1   1.0000    -101.493910     -2761.7897
   2   1.0000     -35.780211      -973.6290
   3   1.0000     -31.205307      -849.1396
   4   1.0000     -31.205223      -849.1373
   5   1.0000     -31.190097      -848.7257
   6   1.0000      -9.509228      -258.7592
   7   1.0000      -7.261505      -197.5956
   8   1.0000      -7.258133      -197.5038
   9   1.0000      -7.257722      -197.4927
  10   1.0000      -4.090945      -111.3203
  11   1.0000      -2.685946       -73.0883
  12   1.0000      -2.681766       -72.9746
  13   1.0000      -2.668522       -72.6142
  14   1.0000      -0.882814       -24.0226
  15   1.0000      -0.456730       -12.4283
  16   1.0000      -0.415025       -11.2934
  17   1.0000      -0.391924       -10.6648
  18   1.0000      -0.378755       -10.3064
  19   1.0000      -0.368472       -10.0266
  20   1.0000      -0.344293        -9.3687
  21   1.0000      -0.344202        -9.3662
  22   0.0000      -0.038006        -1.0342
  23   0.0000       0.014226         0.3871
  24   0.0000       0.025490         0.6936
  25   0.0000       0.028696         0.7808
  26   0.0000       0.031618         0.8604

MULLIKEN ATOMIC CHARGES AND SPIN POPULATIONS
--------------------------------------------
   0 Ni:    0.559913    0.966342
   1 Cl:   -0.559913    0.033658
Sum of atomic charges         :   -0.0000000

LOEWDIN ATOMIC CHARGES AND SPIN POPULATIONS
-------------------------------------------
   0 Ni:    0.093536    0.949692
   1 Cl:   -0.093536    0.050308

  Mayer bond orders larger than 0.100000
B(  0-Ni,  1-Cl) :   0.9644

FINAL SINGLE POINT ENERGY     -1968.381112674998

DIPOLE MOMENT
-------------
                                X             Y             Z
Electronic contribution:      0.00000      -0.00000      -2.38609
Nuclear contribution   :      0.00000       0.00000       0.21916
                        -----------------------------------------
Total Dipole Moment    :      0.00000      -0.00000      -2.16693
                        -----------------------------------------
Magnitude (a.u.)       :      2.16693
Magnitude (Debye)      :      5.50790

Rotational constants in cm-1:     0.000000     0.174027     0.174027
Rotational constants in MHz :     0.000000  5217.185595  5217.185595

                             ****ORCA TERMINATED NORMALLY****
TOTAL RUN TIME: 0 days 0 hours 6 minutes 12 seconds 369 msec
