                         Program Version 4.2.0 -  RELEASE  -
|  1> #
|  2> # 46_NiBr wb97x-v/aug-cc-pvtz
|  3> #
|  4> ! wb97x-v aug-cc-pvtz def2/jk grid4 nofinalgrid
|  5>
|  6> *xyz 0 2
|  7>   Ni  0.00000000000000      0.00000000000000     -0.09144593844003
|  8>   Br  0.00000000000000      0.00000000000000      2.09144593844003
|  9> *
| 10>
| 11> %pal
| 12> nprocs 24
| 13> end
| 14>
| 15>
| 16>                          ****END OF INPUT****

CARTESIAN COORDINATES (ANGSTROEM)
---------------------------------
  Ni     0.000000    0.000000   -0.091446
  Br     0.000000    0.000000    2.091446

 Total Charge           Charge          ....    0
 Multiplicity           Mult            ....    2
 Number of Electrons    NEL             ....   63
 Basis Dimension        Dim             ....  152

ORBITAL ENERGIES
----------------
                 SPIN UP ORBITALS
  NO   OCC          E(Eh)            E(eV)
   0   1.0000    -482.618269    -13132.7107
   1   1.0000    -299.693613     -8155.0778
   2   1.0000     -62.492183     -1700.4987
   3   1.0000     -56.296533     -1531.9065
   4   1.0000     -56.295552     -1531.8799
   5   1.0000     -56.295155     -1531.8691
   6   1.0000     -35.802133      -974.2256
   7   1.0000     -31.228919      -849.7821
   8   1.0000     -31.228133      -849.7607
   9   1.0000     -31.196005      -848.8864
  10   1.0000      -8.756220      -238.2689
  11   1.0000      -6.580756      -179.0715
  12   1.0000      -6.577057      -178.9708
  13   1.0000      -6.575921      -178.9399
  14   1.0000      -4.139259      -112.6350
  15   1.0000      -2.756404       -75.0056
  16   1.0000      -2.749928       -74.8293
  17   1.0000      -2.704132       -73.5832
  18   1.0000      -2.703256       -73.5593
  19   1.0000      -2.702436       -73.5370
  20   1.0000      -2.699460       -73.4560
  21   1.0000      -2.699392       -73.4542
  22   1.0000      -2.686546       -73.1046
  23   1.0000      -0.850949       -23.1555
  24   1.0000      -0.470243       -12.7960
  25   1.0000      -0.455937       -12.4067
  26   1.0000      -0.419771       -11.4225
  27   1.0000      -0.395193       -10.7538
  28   1.0000      -0.393370       -10.7041
  29   1.0000      -0.364833        -9.9276
  30   1.0000      -0.361223        -9.8294
  31   1.0000      -0.346882        -9.4391
  32   0.0000      -0.040244        -1.0951
  33   0.0000       0.024347         0.6625
  34   0.0000       0.025880         0.7042
  35   0.0000       0.028533         0.7764
  36   0.0000       0.041007         1.1158

                 SPIN DOWN ORBITALS
  NO   OCC          E(Eh)            E(eV)
   0   1.0000    -482.618163    -13132.7079
   1   1.0000    -299.693394     -8155.0719
   2   1.0000     -62.492125     -1700.4972
   3   1.0000     -56.296497     -1531.9056
   4   1.0000     -56.295301     -1531.8730
   5   1.0000     -56.295104     -1531.8677
   6   1.0000     -35.780010      -973.6236
   7   1.0000     -31.205195      -849.1365
   8   1.0000     -31.205014      -849.1316
   9   1.0000     -31.189719      -848.7154
  10   1.0000      -8.756070      -238.2648
  11   1.0000      -6.580716      -179.0704
  12   1.0000      -6.576620      -178.9589
  13   1.0000      -6.575841      -178.9377
  14   1.0000      -4.090822      -111.3169
  15   1.0000      -2.704548       -73.5945
  16   1.0000      -2.703036       -73.5533
  17   1.0000      -2.702399       -73.5360
  18   1.0000      -2.699193       -73.4488
  19   1.0000      -2.699148       -73.4476
  20   1.0000      -2.686060       -73.0914
  21   1.0000      -2.681412       -72.9649
  22   1.0000      -2.668239       -72.6065
  23   1.0000      -0.849037       -23.1035
  24   1.0000      -0.444573       -12.0975
  25   1.0000      -0.404472       -11.0062
  26   1.0000      -0.376421       -10.2429
  27   1.0000      -0.373455       -10.1622
  28   1.0000      -0.368071       -10.0157
  29   1.0000      -0.344557        -9.3759
  30   1.0000      -0.336471        -9.1558
  31   0.0000      -0.036907        -1.0043
  32   0.0000       0.013342         0.3631
  33   0.0000       0.025302         0.6885
  34   0.0000       0.029064         0.7909
  35   0.0000       0.030114         0.8195

MULLIKEN ATOMIC CHARGES AND SPIN POPULATIONS
--------------------------------------------
   0 Ni:    0.502679    0.966781
   1 Br:   -0.502679    0.033219
Sum of atomic charges         :   -0.0000000

LOEWDIN ATOMIC CHARGES AND SPIN POPULATIONS
-------------------------------------------
   0 Ni:   -0.037981    0.948904
   1 Br:    0.037981    0.051096

  Mayer bond orders larger than 0.100000
B(  0-Ni,  1-Br) :   1.0977

FINAL SINGLE POINT ENERGY     -4082.200195244180

DIPOLE MOMENT
-------------
                                X             Y             Z
Electronic contribution:      0.00000       0.00000       3.36271
Nuclear contribution   :      0.00000       0.00000      -5.43759
                        -----------------------------------------
Total Dipole Moment    :      0.00000       0.00000      -2.07488
                        -----------------------------------------
Magnitude (a.u.)       :      2.07488
Magnitude (Debye)      :      5.27393

Rotational constants in cm-1:     0.000000     0.104547     0.104547
Rotational constants in MHz :     0.000000  3134.234625  3134.234625

                             ****ORCA TERMINATED NORMALLY****
TOTAL RUN TIME: 0 days 0 hours 7 minutes 38 seconds 173 msec
