                         Program Version 4.2.0 -  RELEASE  -
|  1> #
|  2> # 47_NiO wb97x-v/aug-cc-pvtz
|  3> #
|  4> ! wb97x-v aug-cc-pvtz def2/jk grid4 nofinalgrid
|  5>
|  6> *xyz 0 3
|  7>   Ni  0.00000000000000      0.00000000000000      0.18512940996137
|  8>   O   0.00000000000000      0.00000000000000      1.81487059003863
|  9> *
| 10>
| 11> %pal
| 12> nprocs 24
| 13> end
| 14>
| 15>
| 16>                          ****END OF INPUT****

CARTESIAN COORDINATES (ANGSTROEM)
---------------------------------
  Ni     0.000000    0.000000    0.185129
  O      0.000000    0.000000    1.814871

 Total Charge           Charge          ....    0
 Multiplicity           Mult            ....    3
 Number of Electrons    NEL             ....   36
 Basis Dimension        Dim             ....  139

ORBITAL ENERGIES
----------------
                 SPIN UP ORBITALS
  NO   OCC          E(Eh)            E(eV)
   0   1.0000    -299.733194     -8156.1549
   1   1.0000     -35.856601      -975.7077
   2   1.0000     -31.286480      -851.3484
   3   1.0000     -31.262172      -850.6869
   4   1.0000     -31.262172      -850.6869
   5   1.0000     -19.215620      -522.8836
   6   1.0000      -4.187928      -113.9593
   7   1.0000      -2.813752       -76.5661
   8   1.0000      -2.760352       -75.1130
   9   1.0000      -2.760352       -75.1130
  10   1.0000      -1.032629       -28.0993
  11   1.0000      -0.507648       -13.8138
  12   1.0000      -0.507648       -13.8138
  13   1.0000      -0.505426       -13.7533
  14   1.0000      -0.425857       -11.5882
  15   1.0000      -0.425857       -11.5882
  16   1.0000      -0.387925       -10.5560
  17   1.0000      -0.387925       -10.5560
  18   1.0000      -0.361880        -9.8473
  19   0.0000      -0.041593        -1.1318
  20   0.0000       0.026906         0.7321
  21   0.0000       0.026906         0.7321
  22   0.0000       0.029516         0.8032
  23   0.0000       0.040086         1.0908

                 SPIN DOWN ORBITALS
  NO   OCC          E(Eh)            E(eV)
   0   1.0000    -299.732844     -8156.1453
   1   1.0000     -35.826426      -974.8866
   2   1.0000     -31.253831      -850.4600
   3   1.0000     -31.242024      -850.1387
   4   1.0000     -31.242024      -850.1387
   5   1.0000     -19.195644      -522.3400
   6   1.0000      -4.125512      -112.2609
   7   1.0000      -2.723283       -74.1043
   8   1.0000      -2.704585       -73.5955
   9   1.0000      -2.704585       -73.5955
  10   1.0000      -0.968915       -26.3655
  11   1.0000      -0.469614       -12.7789
  12   1.0000      -0.392699       -10.6859
  13   1.0000      -0.392699       -10.6859
  14   1.0000      -0.383543       -10.4367
  15   1.0000      -0.383543       -10.4367
  16   1.0000      -0.334773        -9.1096
  17   0.0000      -0.032450        -0.8830
  18   0.0000      -0.015034        -0.4091
  19   0.0000      -0.015034        -0.4091
  20   0.0000       0.030676         0.8347
  21   0.0000       0.032243         0.8774

MULLIKEN ATOMIC CHARGES AND SPIN POPULATIONS
--------------------------------------------
   0 Ni:    0.603831    1.066013
   1 O :   -0.603831    0.933987
Sum of atomic charges         :   -0.0000000

LOEWDIN ATOMIC CHARGES AND SPIN POPULATIONS
-------------------------------------------
   0 Ni:    0.539492    1.172888
   1 O :   -0.539492    0.827112

  Mayer bond orders larger than 0.100000
B(  0-Ni,  1-O ) :   1.8586

FINAL SINGLE POINT ENERGY     -1583.348132601486

DIPOLE MOMENT
-------------
                                X             Y             Z
Electronic contribution:     -0.00000      -0.00000      -2.96635
Nuclear contribution   :      0.00000       0.00000       0.89170
                        -----------------------------------------
Total Dipole Moment    :     -0.00000      -0.00000      -2.07465
                        -----------------------------------------
Magnitude (a.u.)       :      2.07465
Magnitude (Debye)      :      5.27334

Rotational constants in cm-1:     0.000000     0.504828     0.504828
Rotational constants in MHz :     0.000000 15134.363944 15134.363944

                             ****ORCA TERMINATED NORMALLY****
TOTAL RUN TIME: 0 days 0 hours 5 minutes 41 seconds 531 msec
