                         Program Version 4.2.0 -  RELEASE  -
|  1> #
|  2> # 53_CuO wb97x-v/aug-cc-pvtz
|  3> #
|  4> ! wb97x-v aug-cc-pvtz def2/jk grid4 nofinalgrid
|  5>
|  6> *xyz 0 2
|  7>   Cu  0.00000000000000      0.00000000000000      0.13870993735929
|  8>   O   0.00000000000000      0.00000000000000      1.86129006264071
|  9> *
| 10>
| 11> %pal
| 12> nprocs 24
| 13> end
| 14>
| 15>
| 16>                          ****END OF INPUT****

CARTESIAN COORDINATES (ANGSTROEM)
---------------------------------
  Cu     0.000000    0.000000    0.138710
  O      0.000000    0.000000    1.861290

 Total Charge           Charge          ....    0
 Multiplicity           Mult            ....    2
 Number of Electrons    NEL             ....   37
 Basis Dimension        Dim             ....  139

ORBITAL ENERGIES
----------------
                 SPIN UP ORBITALS
  NO   OCC          E(Eh)            E(eV)
   0   1.0000    -322.885677     -8786.1660
   1   1.0000     -38.874519     -1057.8294
   2   1.0000     -34.070977      -927.1184
   3   1.0000     -34.070795      -927.1135
   4   1.0000     -34.066271      -926.9904
   5   1.0000     -19.213187      -522.8174
   6   1.0000      -4.444425      -120.9390
   7   1.0000      -2.944760       -80.1310
   8   1.0000      -2.939137       -79.9780
   9   1.0000      -2.930764       -79.7502
  10   1.0000      -1.026652       -27.9366
  11   1.0000      -0.489531       -13.3208
  12   1.0000      -0.480283       -13.0692
  13   1.0000      -0.458859       -12.4862
  14   1.0000      -0.425898       -11.5893
  15   1.0000      -0.425868       -11.5885
  16   1.0000      -0.399754       -10.8779
  17   1.0000      -0.365928        -9.9574
  18   1.0000      -0.361957        -9.8494
  19   0.0000      -0.037011        -1.0071
  20   0.0000       0.027216         0.7406
  21   0.0000       0.029222         0.7952
  22   0.0000       0.032027         0.8715
  23   0.0000       0.041071         1.1176

                 SPIN DOWN ORBITALS
  NO   OCC          E(Eh)            E(eV)
   0   1.0000    -322.885693     -8786.1664
   1   1.0000     -38.871448     -1057.7459
   2   1.0000     -34.067621      -927.0271
   3   1.0000     -34.067568      -927.0256
   4   1.0000     -34.065324      -926.9646
   5   1.0000     -19.193847      -522.2911
   6   1.0000      -4.438718      -120.7837
   7   1.0000      -2.936263       -79.8998
   8   1.0000      -2.931340       -79.7658
   9   1.0000      -2.928414       -79.6862
  10   1.0000      -0.955936       -26.0123
  11   1.0000      -0.461138       -12.5482
  12   1.0000      -0.450370       -12.2552
  13   1.0000      -0.426241       -11.5986
  14   1.0000      -0.422952       -11.5091
  15   1.0000      -0.422916       -11.5081
  16   1.0000      -0.351194        -9.5565
  17   1.0000      -0.340584        -9.2678
  18   0.0000      -0.033923        -0.9231
  19   0.0000      -0.022793        -0.6202
  20   0.0000       0.028975         0.7885
  21   0.0000       0.032250         0.8776
  22   0.0000       0.033942         0.9236

MULLIKEN ATOMIC CHARGES AND SPIN POPULATIONS
--------------------------------------------
   0 Cu:    0.632303    0.034182
   1 O :   -0.632303    0.965818
Sum of atomic charges         :    0.0000000

LOEWDIN ATOMIC CHARGES AND SPIN POPULATIONS
-------------------------------------------
   0 Cu:    0.415413    0.104816
   1 O :   -0.415413    0.895184

  Mayer bond orders larger than 0.100000
B(  0-Cu,  1-O ) :   0.9387

FINAL SINGLE POINT ENERGY     -1715.536736960416

DIPOLE MOMENT
-------------
                                X             Y             Z
Electronic contribution:     -0.00000       0.00000      -3.79164
Nuclear contribution   :      0.00000       0.00000       1.81807
                        -----------------------------------------
Total Dipole Moment    :     -0.00000       0.00000      -1.97357
                        -----------------------------------------
Magnitude (a.u.)       :      1.97357
Magnitude (Debye)      :      5.01641

Rotational constants in cm-1:     0.000000     0.444492     0.444492
Rotational constants in MHz :     0.000000 13325.547784 13325.547784

                             ****ORCA TERMINATED NORMALLY****
TOTAL RUN TIME: 0 days 0 hours 5 minutes 9 seconds 122 msec
