                         Program Version 4.2.0 -  RELEASE  -
|  1> #
|  2> # 54_CuS wb97x-v/aug-cc-pvtz
|  3> #
|  4> ! wb97x-v aug-cc-pvtz def2/jk grid4 nofinalgrid
|  5>
|  6> *xyz 0 2
|  7>   Cu  0.00000000000000      0.00000000000000     -0.02892798555449
|  8>   S   0.00000000000000      0.00000000000000      2.02892798555449
|  9> *
| 10>
| 11> %pal
| 12> nprocs 24
| 13> end
| 14>
| 15>
| 16>                          ****END OF INPUT****

CARTESIAN COORDINATES (ANGSTROEM)
---------------------------------
  Cu     0.000000    0.000000   -0.028928
  S      0.000000    0.000000    2.028928

 Total Charge           Charge          ....    0
 Multiplicity           Mult            ....    2
 Number of Electrons    NEL             ....   45
 Basis Dimension        Dim             ....  143

ORBITAL ENERGIES
----------------
                 SPIN UP ORBITALS
  NO   OCC          E(Eh)            E(eV)
   0   1.0000    -322.883122     -8786.0964
   1   1.0000     -88.873498     -2418.3708
   2   1.0000     -38.869737     -1057.6993
   3   1.0000     -34.066284      -926.9907
   4   1.0000     -34.065911      -926.9806
   5   1.0000     -34.062439      -926.8861
   6   1.0000      -8.027234      -218.4321
   7   1.0000      -5.990772      -163.0172
   8   1.0000      -5.978808      -162.6916
   9   1.0000      -5.974452      -162.5731
  10   1.0000      -4.439246      -120.7980
  11   1.0000      -2.939088       -79.9767
  12   1.0000      -2.933750       -79.8314
  13   1.0000      -2.927250       -79.6545
  14   1.0000      -0.792105       -21.5543
  15   1.0000      -0.452231       -12.3058
  16   1.0000      -0.451310       -12.2808
  17   1.0000      -0.440571       -11.9885
  18   1.0000      -0.422688       -11.5019
  19   1.0000      -0.422667       -11.5014
  20   1.0000      -0.362680        -9.8690
  21   1.0000      -0.360062        -9.7978
  22   1.0000      -0.327626        -8.9152
  23   0.0000      -0.034854        -0.9484
  24   0.0000       0.025518         0.6944
  25   0.0000       0.027911         0.7595
  26   0.0000       0.031644         0.8611
  27   0.0000       0.041281         1.1233

                 SPIN DOWN ORBITALS
  NO   OCC          E(Eh)            E(eV)
   0   1.0000    -322.883102     -8786.0959
   1   1.0000     -88.869105     -2418.2513
   2   1.0000     -38.867707     -1057.6441
   3   1.0000     -34.064082      -926.9308
   4   1.0000     -34.063706      -926.9206
   5   1.0000     -34.061866      -926.8705
   6   1.0000      -8.023053      -218.3184
   7   1.0000      -5.976223      -162.6213
   8   1.0000      -5.975704      -162.6072
   9   1.0000      -5.971430      -162.4909
  10   1.0000      -4.435423      -120.6940
  11   1.0000      -2.933540       -79.8257
  12   1.0000      -2.928256       -79.6819
  13   1.0000      -2.925843       -79.6162
  14   1.0000      -0.746370       -20.3098
  15   1.0000      -0.444354       -12.0915
  16   1.0000      -0.437729       -11.9112
  17   1.0000      -0.424276       -11.5451
  18   1.0000      -0.420673       -11.4471
  19   1.0000      -0.420600       -11.4451
  20   1.0000      -0.352018        -9.5789
  21   1.0000      -0.315772        -8.5926
  22   0.0000      -0.056486        -1.5371
  23   0.0000      -0.033033        -0.8989
  24   0.0000       0.027902         0.7592
  25   0.0000       0.029651         0.8068
  26   0.0000       0.032036         0.8717

MULLIKEN ATOMIC CHARGES AND SPIN POPULATIONS
--------------------------------------------
   0 Cu:    0.435189    0.031936
   1 S :   -0.435189    0.968064
Sum of atomic charges         :   -0.0000000

LOEWDIN ATOMIC CHARGES AND SPIN POPULATIONS
-------------------------------------------
   0 Cu:   -0.028711    0.143749
   1 S :    0.028711    0.856251

  Mayer bond orders larger than 0.100000
B(  0-Cu,  1-S ) :   1.1815

FINAL SINGLE POINT ENERGY     -2038.526762517471

DIPOLE MOMENT
-------------
                                X             Y             Z
Electronic contribution:     -0.00000       0.00000      -5.42450
Nuclear contribution   :      0.00000       0.00000       3.54103
                        -----------------------------------------
Total Dipole Moment    :     -0.00000       0.00000      -1.88347
                        -----------------------------------------
Magnitude (a.u.)       :      1.88347
Magnitude (Debye)      :      4.78740

Rotational constants in cm-1:     0.000000     0.186806     0.186806
Rotational constants in MHz :     0.000000  5600.307820  5600.307820

                             ****ORCA TERMINATED NORMALLY****
TOTAL RUN TIME: 0 days 0 hours 4 minutes 48 seconds 578 msec
