                         Program Version 4.2.0 -  RELEASE  -
|  1> #
|  2> # 56_ZnF wb97x-v/aug-cc-pvtz
|  3> #
|  4> ! wb97x-v aug-cc-pvtz def2/jk grid4 nofinalgrid
|  5>
|  6> *xyz 0 2
|  7>   Zn  0.00000000000000      0.00000000000000      0.10305473518103
|  8>   F   0.00000000000000      0.00000000000000      1.89694526481897
|  9> *
| 10>
| 11> %pal
| 12> nprocs 24
| 13> end
| 14>
| 15>
| 16>                          ****END OF INPUT****

CARTESIAN COORDINATES (ANGSTROEM)
---------------------------------
  Zn     0.000000    0.000000    0.103055
  F      0.000000    0.000000    1.896945

 Total Charge           Charge          ....    0
 Multiplicity           Mult            ....    2
 Number of Electrons    NEL             ....   39
 Basis Dimension        Dim             ....  139

ORBITAL ENERGIES
----------------
                 SPIN UP ORBITALS
  NO   OCC          E(Eh)            E(eV)
   0   1.0000    -347.132413     -9445.9532
   1   1.0000     -42.272556     -1150.2947
   2   1.0000     -37.242989     -1013.4333
   3   1.0000     -37.242989     -1013.4333
   4   1.0000     -37.240074     -1013.3539
   5   1.0000     -24.686838      -671.7630
   6   1.0000      -4.966897      -135.1562
   7   1.0000      -3.360169       -91.4349
   8   1.0000      -3.360169       -91.4349
   9   1.0000      -3.352920       -91.2376
  10   1.0000      -1.218224       -33.1496
  11   1.0000      -0.650130       -17.6909
  12   1.0000      -0.643361       -17.5067
  13   1.0000      -0.643360       -17.5067
  14   1.0000      -0.642369       -17.4798
  15   1.0000      -0.642369       -17.4798
  16   1.0000      -0.501425       -13.6445
  17   1.0000      -0.461447       -12.5566
  18   1.0000      -0.461447       -12.5566
  19   1.0000      -0.329150        -8.9566
  20   0.0000       0.015634         0.4254
  21   0.0000       0.015634         0.4254
  22   0.0000       0.026087         0.7099
  23   0.0000       0.037440         1.0188
  24   0.0000       0.065221         1.7748

                 SPIN DOWN ORBITALS
  NO   OCC          E(Eh)            E(eV)
   0   1.0000    -347.131142     -9445.9186
   1   1.0000     -42.271666     -1150.2705
   2   1.0000     -37.242646     -1013.4239
   3   1.0000     -37.242646     -1013.4239
   4   1.0000     -37.238581     -1013.3133
   5   1.0000     -24.683923      -671.6837
   6   1.0000      -4.964602      -135.0937
   7   1.0000      -3.358247       -91.3826
   8   1.0000      -3.358247       -91.3826
   9   1.0000      -3.351708       -91.2046
  10   1.0000      -1.209880       -32.9225
  11   1.0000      -0.642068       -17.4715
  12   1.0000      -0.640115       -17.4184
  13   1.0000      -0.640115       -17.4184
  14   1.0000      -0.639585       -17.4040
  15   1.0000      -0.639585       -17.4040
  16   1.0000      -0.480748       -13.0818
  17   1.0000      -0.458245       -12.4695
  18   1.0000      -0.458245       -12.4695
  19   0.0000      -0.059204        -1.6110
  20   0.0000       0.030326         0.8252
  21   0.0000       0.030326         0.8252
  22   0.0000       0.038823         1.0564
  23   0.0000       0.042369         1.1529

MULLIKEN ATOMIC CHARGES AND SPIN POPULATIONS
--------------------------------------------
   0 Zn:    0.664809    0.952081
   1 F :   -0.664809    0.047919
Sum of atomic charges         :    0.0000000

LOEWDIN ATOMIC CHARGES AND SPIN POPULATIONS
-------------------------------------------
   0 Zn:    0.538445    0.842837
   1 F :   -0.538445    0.157163

  Mayer bond orders larger than 0.100000
B(  0-Zn,  1-F ) :   0.4980

FINAL SINGLE POINT ENERGY     -1879.110560794993

DIPOLE MOMENT
-------------
                                X             Y             Z
Electronic contribution:     -0.00000       0.00000      -1.96960
Nuclear contribution   :      0.00000       0.00000       0.74245
                        -----------------------------------------
Total Dipole Moment    :     -0.00000       0.00000      -1.22715
                        -----------------------------------------
Magnitude (a.u.)       :      1.22715
Magnitude (Debye)      :      3.11916

Rotational constants in cm-1:     0.000000     0.355862     0.355862
Rotational constants in MHz :     0.000000 10668.470416 10668.470416

                             ****ORCA TERMINATED NORMALLY****
TOTAL RUN TIME: 0 days 0 hours 3 minutes 57 seconds 451 msec
