                         Program Version 4.2.0 -  RELEASE  -
|  1> #
|  2> # 58_ZnBr wb97x-v/aug-cc-pvtz
|  3> #
|  4> ! wb97x-v aug-cc-pvtz def2/jk grid4 nofinalgrid
|  5>
|  6> *xyz 0 2
|  7>   Zn  0.00000000000000      0.00000000000000     -0.15390624723259
|  8>   Br  0.00000000000000      0.00000000000000      2.15390624723258
|  9> *
| 10>
| 11> %pal
| 12> nprocs 24
| 13> end
| 14>
| 15>
| 16>                          ****END OF INPUT****

CARTESIAN COORDINATES (ANGSTROEM)
---------------------------------
  Zn     0.000000    0.000000   -0.153906
  Br     0.000000    0.000000    2.153906

 Total Charge           Charge          ....    0
 Multiplicity           Mult            ....    2
 Number of Electrons    NEL             ....   65
 Basis Dimension        Dim             ....  152

ORBITAL ENERGIES
----------------
                 SPIN UP ORBITALS
  NO   OCC          E(Eh)            E(eV)
   0   1.0000    -482.638769    -13133.2686
   1   1.0000    -347.145417     -9446.3071
   2   1.0000     -62.512629     -1701.0551
   3   1.0000     -56.317688     -1532.4822
   4   1.0000     -56.315583     -1532.4249
   5   1.0000     -56.315583     -1532.4249
   6   1.0000     -42.286158     -1150.6649
   7   1.0000     -37.256092     -1013.7898
   8   1.0000     -37.256092     -1013.7898
   9   1.0000     -37.254586     -1013.7488
  10   1.0000      -8.776669      -238.8253
  11   1.0000      -6.602621      -179.6665
  12   1.0000      -6.596272      -179.4937
  13   1.0000      -6.596272      -179.4937
  14   1.0000      -4.978503      -135.4720
  15   1.0000      -3.370541       -91.7171
  16   1.0000      -3.370541       -91.7171
  17   1.0000      -3.366484       -91.6067
  18   1.0000      -2.725558       -74.1662
  19   1.0000      -2.723792       -74.1182
  20   1.0000      -2.723792       -74.1182
  21   1.0000      -2.718989       -73.9875
  22   1.0000      -2.718960       -73.9867
  23   1.0000      -0.875716       -23.8294
  24   1.0000      -0.652719       -17.7614
  25   1.0000      -0.652712       -17.7612
  26   1.0000      -0.652163       -17.7463
  27   1.0000      -0.651470       -17.7274
  28   1.0000      -0.651470       -17.7274
  29   1.0000      -0.462351       -12.5812
  30   1.0000      -0.388153       -10.5622
  31   1.0000      -0.388153       -10.5622
  32   1.0000      -0.315827        -8.5941
  33   0.0000       0.012908         0.3513
  34   0.0000       0.012908         0.3513
  35   0.0000       0.025659         0.6982
  36   0.0000       0.035815         0.9746
  37   0.0000       0.057677         1.5695

                 SPIN DOWN ORBITALS
  NO   OCC          E(Eh)            E(eV)
   0   1.0000    -482.638259    -13133.2547
   1   1.0000    -347.144245     -9446.2751
   2   1.0000     -62.512354     -1701.0476
   3   1.0000     -56.316571     -1532.4518
   4   1.0000     -56.315355     -1532.4187
   5   1.0000     -56.315355     -1532.4187
   6   1.0000     -42.285433     -1150.6451
   7   1.0000     -37.255785     -1013.7814
   8   1.0000     -37.255785     -1013.7814
   9   1.0000     -37.253398     -1013.7165
  10   1.0000      -8.775936      -238.8054
  11   1.0000      -6.600675      -179.6135
  12   1.0000      -6.595929      -179.4844
  13   1.0000      -6.595929      -179.4844
  14   1.0000      -4.976564      -135.4192
  15   1.0000      -3.369036       -91.6761
  16   1.0000      -3.369036       -91.6761
  17   1.0000      -3.365349       -91.5758
  18   1.0000      -2.724088       -74.1262
  19   1.0000      -2.722621       -74.0863
  20   1.0000      -2.722621       -74.0863
  21   1.0000      -2.718764       -73.9813
  22   1.0000      -2.718734       -73.9805
  23   1.0000      -0.867346       -23.6017
  24   1.0000      -0.649950       -17.6860
  25   1.0000      -0.649943       -17.6859
  26   1.0000      -0.648785       -17.6543
  27   1.0000      -0.648785       -17.6543
  28   1.0000      -0.646901       -17.6031
  29   1.0000      -0.436989       -11.8911
  30   1.0000      -0.385771       -10.4974
  31   1.0000      -0.385771       -10.4974
  32   0.0000      -0.063155        -1.7185
  33   0.0000       0.026488         0.7208
  34   0.0000       0.026488         0.7208
  35   0.0000       0.036854         1.0028
  36   0.0000       0.040922         1.1136

MULLIKEN ATOMIC CHARGES AND SPIN POPULATIONS
--------------------------------------------
   0 Zn:    0.467795    0.853650
   1 Br:   -0.467795    0.146350
Sum of atomic charges         :   -0.0000000

LOEWDIN ATOMIC CHARGES AND SPIN POPULATIONS
-------------------------------------------
   0 Zn:    0.170863    0.783881
   1 Br:   -0.170863    0.216119

  Mayer bond orders larger than 0.100000
B(  0-Zn,  1-Br) :   0.8114

FINAL SINGLE POINT ENERGY     -4353.255442591984

DIPOLE MOMENT
-------------
                                X             Y             Z
Electronic contribution:      0.00000      -0.00000       2.14283
Nuclear contribution   :      0.00000       0.00000      -3.26305
                        -----------------------------------------
Total Dipole Moment    :      0.00000      -0.00000      -1.12021
                        -----------------------------------------
Magnitude (a.u.)       :      1.12021
Magnitude (Debye)      :      2.84736

Rotational constants in cm-1:     0.000000     0.088026     0.088026
Rotational constants in MHz :     0.000000  2638.947188  2638.947188

                             ****ORCA TERMINATED NORMALLY****
TOTAL RUN TIME: 0 days 0 hours 7 minutes 9 seconds 468 msec
