                         Program Version 4.2.0 -  RELEASE  -
|  1> #
|  2> # 59_ZnO wb97x-v/aug-cc-pvtz
|  3> #
|  4> ! wb97x-v aug-cc-pvtz def2/jk grid4 nofinalgrid
|  5>
|  6> *xyz 0 1
|  7>   Zn  0.00000000000000      0.00000000000000      0.14991809043900
|  8>   O   0.00000000000000      0.00000000000000      1.85008190956100
|  9> *
| 10>
| 11> %pal
| 12> nprocs 24
| 13> end
| 14>
| 15>
| 16>                          ****END OF INPUT****

CARTESIAN COORDINATES (ANGSTROEM)
---------------------------------
  Zn     0.000000    0.000000    0.149918
  O      0.000000    0.000000    1.850082

 Total Charge           Charge          ....    0
 Multiplicity           Mult            ....    1
 Number of Electrons    NEL             ....   38
 Basis Dimension        Dim             ....  139

ORBITAL ENERGIES
----------------

  NO   OCC          E(Eh)            E(eV)
   0   2.0000    -347.149192     -9446.4098
   1   2.0000     -42.292522     -1150.8380
   2   2.0000     -37.261949     -1013.9492
   3   2.0000     -37.261949     -1013.9492
   4   2.0000     -37.261116     -1013.9265
   5   2.0000     -19.170992      -521.6692
   6   2.0000      -4.984418      -135.6329
   7   2.0000      -3.375519       -91.8526
   8   2.0000      -3.374402       -91.8222
   9   2.0000      -3.374402       -91.8222
  10   2.0000      -0.978484       -26.6259
  11   2.0000      -0.660031       -17.9603
  12   2.0000      -0.660031       -17.9603
  13   2.0000      -0.654235       -17.8026
  14   2.0000      -0.654235       -17.8026
  15   2.0000      -0.650869       -17.7111
  16   2.0000      -0.393692       -10.7129
  17   2.0000      -0.349977        -9.5234
  18   2.0000      -0.349977        -9.5234
  19   0.0000      -0.084499        -2.2993
  20   0.0000       0.022069         0.6005
  21   0.0000       0.022826         0.6211
  22   0.0000       0.022826         0.6211
  23   0.0000       0.044500         1.2109

MULLIKEN ATOMIC CHARGES
-----------------------
   0 Zn:    0.853845
   1 O :   -0.853845
Sum of atomic charges:    0.0000000

LOEWDIN ATOMIC CHARGES
----------------------
   0 Zn:    0.724709
   1 O :   -0.724709

  Mayer bond orders larger than 0.100000
B(  0-Zn,  1-O ) :   1.5485

FINAL SINGLE POINT ENERGY     -1854.377592103209

DIPOLE MOMENT
-------------
                                X             Y             Z
Electronic contribution:      0.00000       0.00000      -4.22639
Nuclear contribution   :      0.00000       0.00000       1.70040
                        -----------------------------------------
Total Dipole Moment    :      0.00000       0.00000      -2.52599
                        -----------------------------------------
Magnitude (a.u.)       :      2.52599
Magnitude (Debye)      :      6.42056

Rotational constants in cm-1:     0.000000     0.453722     0.453722
Rotational constants in MHz :     0.000000 13602.247054 13602.247054

                             ****ORCA TERMINATED NORMALLY****
TOTAL RUN TIME: 0 days 0 hours 3 minutes 55 seconds 495 msec
