                         Program Version 4.2.0 -  RELEASE  -
|  1> #
|  2> # 64_Cr wb97x-v/aug-cc-pvtz
|  3> #
|  4> ! wb97x-v aug-cc-pvtz def2/jk grid4 nofinalgrid
|  5>
|  6> *xyz 0 7
|  7> Cr 0.0 0.0 0.0
|  8> *
|  9>
| 10> %pal
| 11> nprocs 24
| 12> end
| 13>
| 14>
| 15>                          ****END OF INPUT****

CARTESIAN COORDINATES (ANGSTROEM)
---------------------------------
  Cr     0.000000    0.000000    0.000000

 Total Charge           Charge          ....    0
 Multiplicity           Mult            ....    7
 Number of Electrons    NEL             ....   24
 Basis Dimension        Dim             ....   93

ORBITAL ENERGIES
----------------
                 SPIN UP ORBITALS
  NO   OCC          E(Eh)            E(eV)
   0   1.0000    -215.526973     -5864.7871
   1   1.0000     -24.649353      -670.7430
   2   1.0000     -20.930913      -569.5591
   3   1.0000     -20.930913      -569.5591
   4   1.0000     -20.930912      -569.5591
   5   1.0000      -2.954095       -80.3850
   6   1.0000      -1.911126       -52.0044
   7   1.0000      -1.911126       -52.0044
   8   1.0000      -1.911126       -52.0044
   9   1.0000      -0.284710        -7.7474
  10   1.0000      -0.284700        -7.7471
  11   1.0000      -0.284700        -7.7471
  12   1.0000      -0.284698        -7.7470
  13   1.0000      -0.284698        -7.7470
  14   1.0000      -0.238690        -6.4951
  15   0.0000       0.014535         0.3955
  16   0.0000       0.014535         0.3955
  17   0.0000       0.014535         0.3955
  18   0.0000       0.029237         0.7956
  19   0.0000       0.058682         1.5968

                 SPIN DOWN ORBITALS
  NO   OCC          E(Eh)            E(eV)
   0   1.0000    -215.525663     -5864.7515
   1   1.0000     -24.585937      -669.0173
   2   1.0000     -20.879341      -568.1558
   3   1.0000     -20.879341      -568.1557
   4   1.0000     -20.879339      -568.1557
   5   1.0000      -2.774658       -75.5023
   6   1.0000      -1.713638       -46.6305
   7   1.0000      -1.713638       -46.6305
   8   1.0000      -1.713634       -46.6304
   9   0.0000       0.026612         0.7241
  10   0.0000       0.036783         1.0009
  11   0.0000       0.036784         1.0009
  12   0.0000       0.036784         1.0009
  13   0.0000       0.079838         2.1725

MULLIKEN ATOMIC CHARGES AND SPIN POPULATIONS
--------------------------------------------
   0 Cr:   -0.000000    6.000000
Sum of atomic charges         :   -0.0000000

LOEWDIN ATOMIC CHARGES AND SPIN POPULATIONS
-------------------------------------------
   0 Cr:   -0.000000    6.000000

FINAL SINGLE POINT ENERGY     -1044.298617310362

DIPOLE MOMENT
-------------
                                X             Y             Z
Electronic contribution:      0.00000      -0.00000      -0.00000
Nuclear contribution   :      0.00000       0.00000       0.00000
                        -----------------------------------------
Total Dipole Moment    :      0.00000      -0.00000      -0.00000
                        -----------------------------------------
Magnitude (a.u.)       :      0.00000
Magnitude (Debye)      :      0.00000

Rotational constants in cm-1:     0.000000     0.000000     0.000000
Rotational constants in MHz :     0.000000     0.000000     0.000000

                             ****ORCA TERMINATED NORMALLY****
TOTAL RUN TIME: 0 days 0 hours 3 minutes 54 seconds 419 msec
