                         Program Version 4.2.0 -  RELEASE  -
|  1> #
|  2> # 66_Fe wb97x-v/aug-cc-pvtz
|  3> #
|  4> ! wb97x-v aug-cc-pvtz def2/jk grid4 nofinalgrid
|  5>
|  6> *xyz 0 5
|  7> Fe 0.0 0.0 0.0
|  8> *
|  9>
| 10> %pal
| 11> nprocs 24
| 12> end
| 13>
| 14>
| 15>                          ****END OF INPUT****

CARTESIAN COORDINATES (ANGSTROEM)
---------------------------------
  Fe     0.000000    0.000000    0.000000

 Total Charge           Charge          ....    0
 Multiplicity           Mult            ....    5
 Number of Electrons    NEL             ....   26
 Basis Dimension        Dim             ....   93

ORBITAL ENERGIES
----------------
                 SPIN UP ORBITALS
  NO   OCC          E(Eh)            E(eV)
   0   1.0000    -256.016669     -6966.5677
   1   1.0000     -30.160867      -820.7189
   2   1.0000     -26.027609      -708.2473
   3   1.0000     -25.997878      -707.4382
   4   1.0000     -25.997614      -707.4311
   5   1.0000      -3.702719      -100.7561
   6   1.0000      -2.516097       -68.4665
   7   1.0000      -2.458386       -66.8961
   8   1.0000      -2.457851       -66.8815
   9   1.0000      -0.513992       -13.9864
  10   1.0000      -0.510256       -13.8848
  11   1.0000      -0.510031       -13.8786
  12   1.0000      -0.487556       -13.2671
  13   1.0000      -0.454119       -12.3572
  14   1.0000      -0.292397        -7.9565
  15   0.0000       0.014535         0.3955
  16   0.0000       0.014623         0.3979
  17   0.0000       0.014668         0.3991
  18   0.0000       0.028402         0.7729
  19   0.0000       0.059114         1.6086

                 SPIN DOWN ORBITALS
  NO   OCC          E(Eh)            E(eV)
   0   1.0000    -256.015629     -6966.5394
   1   1.0000     -30.087659      -818.7268
   2   1.0000     -25.959123      -706.3836
   3   1.0000     -25.943370      -705.9550
   4   1.0000     -25.943240      -705.9514
   5   1.0000      -3.527673       -95.9929
   6   1.0000      -2.290845       -62.3371
   7   1.0000      -2.285970       -62.2044
   8   1.0000      -2.285840       -62.2009
   9   1.0000      -0.369134       -10.0446
  10   1.0000      -0.274601        -7.4723
  11   0.0000      -0.007709        -0.2098
  12   0.0000       0.015168         0.4127
  13   0.0000       0.015420         0.4196
  14   0.0000       0.016050         0.4368
  15   0.0000       0.018101         0.4925

MULLIKEN ATOMIC CHARGES AND SPIN POPULATIONS
--------------------------------------------
   0 Fe:   -0.000000    4.000000
Sum of atomic charges         :   -0.0000000

LOEWDIN ATOMIC CHARGES AND SPIN POPULATIONS
-------------------------------------------
   0 Fe:   -0.000000    4.000000

FINAL SINGLE POINT ENERGY     -1263.528439373785

DIPOLE MOMENT
-------------
                                X             Y             Z
Electronic contribution:      0.00000      -0.00000      -0.00000
Nuclear contribution   :      0.00000       0.00000       0.00000
                        -----------------------------------------
Total Dipole Moment    :      0.00000      -0.00000      -0.00000
                        -----------------------------------------
Magnitude (a.u.)       :      0.00000
Magnitude (Debye)      :      0.00000

Rotational constants in cm-1:     0.000000     0.000000     0.000000
Rotational constants in MHz :     0.000000     0.000000     0.000000

                             ****ORCA TERMINATED NORMALLY****
TOTAL RUN TIME: 0 days 0 hours 17 minutes 31 seconds 972 msec
