                         Program Version 4.2.0 -  RELEASE  -
|  1> #
|  2> # 02_ScF scanfunc/aug-cc-pvtz
|  3> #
|  4> ! scanfunc d3bj aug-cc-pvtz def2/j grid4 nofinalgrid
|  5>
|  6> *xyz 0 1
|  7>   Sc  0.00000000000000      0.00000000000000      0.10357126289626
|  8>   F   0.00000000000000      0.00000000000000      1.89642873710374
|  9> *
| 10>
| 11> %pal
| 12> nprocs 24
| 13> end
| 14>
| 15>
| 16>                          ****END OF INPUT****

CARTESIAN COORDINATES (ANGSTROEM)
---------------------------------
  Sc     0.000000    0.000000    0.103571
  F      0.000000    0.000000    1.896429

 Total Charge           Charge          ....    0
 Multiplicity           Mult            ....    1
 Number of Electrons    NEL             ....   30
 Basis Dimension        Dim             ....  139

ORBITAL ENERGIES
----------------

  NO   OCC          E(Eh)            E(eV)
   0   2.0000    -161.450472     -4393.2907
   1   2.0000     -24.508187      -666.9017
   2   2.0000     -17.605643      -479.0739
   3   2.0000     -14.528615      -395.3437
   4   2.0000     -14.528615      -395.3437
   5   2.0000     -14.516227      -395.0066
   6   2.0000      -2.125339       -57.8334
   7   2.0000      -1.331636       -36.2357
   8   2.0000      -1.326920       -36.1073
   9   2.0000      -1.326920       -36.1073
  10   2.0000      -1.091278       -29.6952
  11   2.0000      -0.405726       -11.0404
  12   2.0000      -0.390884       -10.6365
  13   2.0000      -0.390884       -10.6365
  14   2.0000      -0.160904        -4.3784
  15   0.0000      -0.153627        -4.1804
  16   0.0000      -0.153569        -4.1788
  17   0.0000      -0.123483        -3.3602
  18   0.0000      -0.123483        -3.3602
  19   0.0000      -0.090385        -2.4595

MULLIKEN ATOMIC CHARGES
-----------------------
   0 Sc:    0.595498
   1 F :   -0.595498
Sum of atomic charges:   -0.0000000

LOEWDIN ATOMIC CHARGES
----------------------
   0 Sc:    0.371849
   1 F :   -0.371849

  Mayer bond orders larger than 0.100000
B(  0-Sc,  1-F ) :   0.8122

Dispersion correction           -0.000079086
FINAL SINGLE POINT ENERGY      -860.615438617890

DIPOLE MOMENT
-------------
                                X             Y             Z
Electronic contribution:      0.00000       0.00000      -0.96741
Nuclear contribution   :      0.00000       0.00000       0.30099
                        -----------------------------------------
Total Dipole Moment    :      0.00000       0.00000      -0.66642
                        -----------------------------------------
Magnitude (a.u.)       :      0.66642
Magnitude (Debye)      :      1.69391

Rotational constants in cm-1:     0.000000     0.392705     0.392705
Rotational constants in MHz :     0.000000 11772.989606 11772.989606

                             ****ORCA TERMINATED NORMALLY****
TOTAL RUN TIME: 0 days 0 hours 0 minutes 8 seconds 937 msec
