                         Program Version 4.2.0 -  RELEASE  -
|  1> #
|  2> # 03_ScCl scanfunc/aug-cc-pvtz
|  3> #
|  4> ! scanfunc d3bj aug-cc-pvtz def2/j grid4 nofinalgrid
|  5>
|  6> *xyz 0 1
|  7>   Sc  0.00000000000000      0.00000000000000     -0.11786902866458
|  8>   Cl  0.00000000000000      0.00000000000000      2.11786902866458
|  9> *
| 10>
| 11> %pal
| 12> nprocs 24
| 13> end
| 14>
| 15>
| 16>                          ****END OF INPUT****

CARTESIAN COORDINATES (ANGSTROEM)
---------------------------------
  Sc     0.000000    0.000000   -0.117869
  Cl     0.000000    0.000000    2.117869

 Total Charge           Charge          ....    0
 Multiplicity           Mult            ....    1
 Number of Electrons    NEL             ....   38
 Basis Dimension        Dim             ....  143

ORBITAL ENERGIES
----------------

  NO   OCC          E(Eh)            E(eV)
   0   2.0000    -161.441995     -4393.0600
   1   2.0000    -101.272079     -2755.7534
   2   2.0000     -17.589694      -478.6399
   3   2.0000     -14.513811      -394.9409
   4   2.0000     -14.513811      -394.9409
   5   2.0000     -14.498617      -394.5274
   6   2.0000      -9.327416      -253.8119
   7   2.0000      -7.082279      -192.7186
   8   2.0000      -7.081757      -192.7044
   9   2.0000      -7.081757      -192.7044
  10   2.0000      -2.114102       -57.5276
  11   2.0000      -1.317051       -35.8388
  12   2.0000      -1.317051       -35.8388
  13   2.0000      -1.300565       -35.3902
  14   2.0000      -0.762519       -20.7492
  15   2.0000      -0.336992        -9.1700
  16   2.0000      -0.309954        -8.4343
  17   2.0000      -0.309954        -8.4343
  18   2.0000      -0.158454        -4.3117
  19   0.0000      -0.146798        -3.9946
  20   0.0000      -0.146780        -3.9941
  21   0.0000      -0.124537        -3.3888
  22   0.0000      -0.124537        -3.3888
  23   0.0000      -0.102414        -2.7868

MULLIKEN ATOMIC CHARGES
-----------------------
   0 Sc:    0.306141
   1 Cl:   -0.306141
Sum of atomic charges:   -0.0000000

LOEWDIN ATOMIC CHARGES
----------------------
   0 Sc:   -0.152019
   1 Cl:    0.152019

  Mayer bond orders larger than 0.100000
B(  0-Sc,  1-Cl) :   1.3372

Dispersion correction           -0.000192320
FINAL SINGLE POINT ENERGY     -1220.968296878390

DIPOLE MOMENT
-------------
                                X             Y             Z
Electronic contribution:     -0.00000       0.00000      -2.02737
Nuclear contribution   :      0.00000       0.00000       1.04067
                        -----------------------------------------
Total Dipole Moment    :     -0.00000       0.00000      -0.98670
                        -----------------------------------------
Magnitude (a.u.)       :      0.98670
Magnitude (Debye)      :      2.50800

Rotational constants in cm-1:     0.000000     0.170138     0.170138
Rotational constants in MHz :     0.000000  5100.617263  5100.617263

                             ****ORCA TERMINATED NORMALLY****
TOTAL RUN TIME: 0 days 0 hours 0 minutes 9 seconds 450 msec
