                         Program Version 4.2.0 -  RELEASE  -
|  1> #
|  2> # 10_TiBr scanfunc/aug-cc-pvtz
|  3> #
|  4> ! scanfunc d3bj aug-cc-pvtz def2/j grid4 nofinalgrid
|  5>
|  6> *xyz 0 4
|  7>   Ti  0.00000000000000      0.00000000000000     -0.20373332414567
|  8>   Br  0.00000000000000      0.00000000000000      2.20373332414567
|  9> *
| 10>
| 11> %pal
| 12> nprocs 24
| 13> end
| 14>
| 15>
| 16>                          ****END OF INPUT****

CARTESIAN COORDINATES (ANGSTROEM)
---------------------------------
  Ti     0.000000    0.000000   -0.203733
  Br     0.000000    0.000000    2.203733

 Total Charge           Charge          ....    0
 Multiplicity           Mult            ....    4
 Number of Electrons    NEL             ....   57
 Basis Dimension        Dim             ....  152

ORBITAL ENERGIES
----------------
                 SPIN UP ORBITALS
  NO   OCC          E(Eh)            E(eV)
   0   1.0000    -482.233267    -13122.2343
   1   1.0000    -178.525498     -4857.9258
   2   1.0000     -62.273786     -1694.5559
   3   1.0000     -56.075295     -1525.8864
   4   1.0000     -56.074796     -1525.8728
   5   1.0000     -56.074622     -1525.8680
   6   1.0000     -19.733298      -536.9703
   7   1.0000     -16.451927      -447.6797
   8   1.0000     -16.442017      -447.4100
   9   1.0000     -16.440353      -447.3647
  10   1.0000      -8.621228      -234.5955
  11   1.0000      -6.408117      -174.3737
  12   1.0000      -6.407101      -174.3461
  13   1.0000      -6.406050      -174.3175
  14   1.0000      -2.488028       -67.7027
  15   1.0000      -2.487702       -67.6938
  16   1.0000      -2.486889       -67.6717
  17   1.0000      -2.485996       -67.6474
  18   1.0000      -2.485876       -67.6441
  19   1.0000      -2.293839       -62.4185
  20   1.0000      -1.427822       -38.8530
  21   1.0000      -1.421768       -38.6883
  22   1.0000      -1.418834       -38.6084
  23   1.0000      -0.687117       -18.6974
  24   1.0000      -0.289478        -7.8771
  25   1.0000      -0.260811        -7.0970
  26   1.0000      -0.257215        -6.9992
  27   1.0000      -0.173161        -4.7120
  28   1.0000      -0.170021        -4.6265
  29   1.0000      -0.151545        -4.1237
  30   0.0000      -0.118781        -3.2322
  31   0.0000      -0.105111        -2.8602
  32   0.0000      -0.084108        -2.2887
  33   0.0000      -0.044101        -1.2000
  34   0.0000      -0.043708        -1.1894

                 SPIN DOWN ORBITALS
  NO   OCC          E(Eh)            E(eV)
   0   1.0000    -482.233441    -13122.2391
   1   1.0000    -178.525597     -4857.9285
   2   1.0000     -62.274190     -1694.5669
   3   1.0000     -56.075662     -1525.8963
   4   1.0000     -56.075277     -1525.8859
   5   1.0000     -56.074958     -1525.8772
   6   1.0000     -19.709903      -536.3337
   7   1.0000     -16.430476      -447.0960
   8   1.0000     -16.424325      -446.9286
   9   1.0000     -16.415860      -446.6983
  10   1.0000      -8.621543      -234.6041
  11   1.0000      -6.408649      -174.3882
  12   1.0000      -6.407423      -174.3548
  13   1.0000      -6.406076      -174.3182
  14   1.0000      -2.488492       -67.7153
  15   1.0000      -2.488181       -67.7069
  16   1.0000      -2.487183       -67.6797
  17   1.0000      -2.486076       -67.6496
  18   1.0000      -2.485917       -67.6452
  19   1.0000      -2.239590       -60.9423
  20   1.0000      -1.367078       -37.2001
  21   1.0000      -1.357599       -36.9421
  22   1.0000      -1.337286       -36.3894
  23   1.0000      -0.689243       -18.7552
  24   1.0000      -0.285550        -7.7702
  25   1.0000      -0.257860        -7.0167
  26   1.0000      -0.253969        -6.9109
  27   0.0000      -0.068627        -1.8674
  28   0.0000      -0.055832        -1.5193
  29   0.0000      -0.049670        -1.3516
  30   0.0000      -0.040959        -1.1146
  31   0.0000      -0.023511        -0.6398

MULLIKEN ATOMIC CHARGES AND SPIN POPULATIONS
--------------------------------------------
   0 Ti:    0.335061    3.009184
   1 Br:   -0.335061   -0.009184
Sum of atomic charges         :   -0.0000000

LOEWDIN ATOMIC CHARGES AND SPIN POPULATIONS
-------------------------------------------
   0 Ti:   -0.238173    2.906442
   1 Br:    0.238173    0.093558

  Mayer bond orders larger than 0.100000
B(  0-Ti,  1-Br) :   1.2538

Dispersion correction           -0.000204098
FINAL SINGLE POINT ENERGY     -3424.025258546873

DIPOLE MOMENT
-------------
                                X             Y             Z
Electronic contribution:      0.00000       0.00000       1.18283
Nuclear contribution   :      0.00000       0.00000      -2.89414
                        -----------------------------------------
Total Dipole Moment    :      0.00000       0.00000      -1.71131
                        -----------------------------------------
Magnitude (a.u.)       :      1.71131
Magnitude (Debye)      :      4.34980

Rotational constants in cm-1:     0.000000     0.097124     0.097124
Rotational constants in MHz :     0.000000  2911.693161  2911.693161

                             ****ORCA TERMINATED NORMALLY****
TOTAL RUN TIME: 0 days 0 hours 0 minutes 13 seconds 643 msec
