                         Program Version 4.2.0 -  RELEASE  -
|  1> #
|  2> # 12_TiS scanfunc/aug-cc-pvtz
|  3> #
|  4> ! scanfunc d3bj aug-cc-pvtz def2/j grid4 nofinalgrid
|  5>
|  6> *xyz 0 3
|  7>   Ti  0.00000000000000      0.00000000000000     -0.04354772803913
|  8>   S   0.00000000000000      0.00000000000000      2.04354772803913
|  9> *
| 10>
| 11> %pal
| 12> nprocs 24
| 13> end
| 14>
| 15>
| 16>                          ****END OF INPUT****

CARTESIAN COORDINATES (ANGSTROEM)
---------------------------------
  Ti     0.000000    0.000000   -0.043548
  S      0.000000    0.000000    2.043548

 Total Charge           Charge          ....    0
 Multiplicity           Mult            ....    3
 Number of Electrons    NEL             ....   38
 Basis Dimension        Dim             ....  143

ORBITAL ENERGIES
----------------
                 SPIN UP ORBITALS
  NO   OCC          E(Eh)            E(eV)
   0   1.0000    -178.550044     -4858.5937
   1   1.0000     -88.597869     -2410.8706
   2   1.0000     -19.764997      -537.8329
   3   1.0000     -16.477094      -448.3645
   4   1.0000     -16.477094      -448.3645
   5   1.0000     -16.474151      -448.2844
   6   1.0000      -7.806852      -212.4352
   7   1.0000      -5.742929      -156.2731
   8   1.0000      -5.742678      -156.2662
   9   1.0000      -5.742678      -156.2662
  10   1.0000      -2.318444       -63.0881
  11   1.0000      -1.450371       -39.4666
  12   1.0000      -1.439136       -39.1609
  13   1.0000      -1.439136       -39.1609
  14   1.0000      -0.586771       -15.9669
  15   1.0000      -0.247206        -6.7268
  16   1.0000      -0.226909        -6.1745
  17   1.0000      -0.226909        -6.1745
  18   1.0000      -0.189893        -5.1673
  19   1.0000      -0.175023        -4.7626
  20   0.0000      -0.116953        -3.1825
  21   0.0000      -0.116953        -3.1825
  22   0.0000      -0.107076        -2.9137
  23   0.0000      -0.100144        -2.7251
  24   0.0000      -0.028865        -0.7855

                 SPIN DOWN ORBITALS
  NO   OCC          E(Eh)            E(eV)
   0   1.0000    -178.549994     -4858.5924
   1   1.0000     -88.599873     -2410.9251
   2   1.0000     -19.748582      -537.3862
   3   1.0000     -16.463947      -448.0068
   4   1.0000     -16.459886      -447.8963
   5   1.0000     -16.459886      -447.8963
   6   1.0000      -7.810911      -212.5457
   7   1.0000      -5.746880      -156.3805
   8   1.0000      -5.746880      -156.3805
   9   1.0000      -5.746106      -156.3595
  10   1.0000      -2.279855       -62.0380
  11   1.0000      -1.406877       -38.2831
  12   1.0000      -1.388111       -37.7724
  13   1.0000      -1.388111       -37.7724
  14   1.0000      -0.591933       -16.1073
  15   1.0000      -0.241112        -6.5610
  16   1.0000      -0.226097        -6.1524
  17   1.0000      -0.226097        -6.1524
  18   0.0000      -0.088851        -2.4178
  19   0.0000      -0.080758        -2.1975
  20   0.0000      -0.069744        -1.8978
  21   0.0000      -0.069744        -1.8978
  22   0.0000      -0.064834        -1.7642

MULLIKEN ATOMIC CHARGES AND SPIN POPULATIONS
--------------------------------------------
   0 Ti:    0.243285    2.268288
   1 S :   -0.243285   -0.268288
Sum of atomic charges         :   -0.0000000

LOEWDIN ATOMIC CHARGES AND SPIN POPULATIONS
-------------------------------------------
   0 Ti:    0.008269    2.075041
   1 S :   -0.008269   -0.075041

  Mayer bond orders larger than 0.100000
B(  0-Ti,  1-S ) :   2.5188

Dispersion correction           -0.000216455
FINAL SINGLE POINT ENERGY     -1247.774459486445

DIPOLE MOMENT
-------------
                                X             Y             Z
Electronic contribution:      0.00000      -0.00000      -5.07340
Nuclear contribution   :      0.00000       0.00000       3.01278
                        -----------------------------------------
Total Dipole Moment    :      0.00000      -0.00000      -2.06062
                        -----------------------------------------
Magnitude (a.u.)       :      2.06062
Magnitude (Debye)      :      5.23767

Rotational constants in cm-1:     0.000000     0.201505     0.201505
Rotational constants in MHz :     0.000000  6040.970749  6040.970749

                             ****ORCA TERMINATED NORMALLY****
TOTAL RUN TIME: 0 days 0 hours 0 minutes 10 seconds 684 msec
