                         Program Version 4.2.0 -  RELEASE  -
|  1> #
|  2> # 13_VH scanfunc/aug-cc-pvtz
|  3> #
|  4> ! scanfunc d3bj aug-cc-pvtz def2/j grid4 nofinalgrid
|  5>
|  6> *xyz 0 5
|  7>   V   0.00000000000000      0.00000000000000      0.15541431667182
|  8>   H   0.00000000000000      0.00000000000000      1.84458568332818
|  9> *
| 10>
| 11> %pal
| 12> nprocs 24
| 13> end
| 14>
| 15>
| 16>                          ****END OF INPUT****

CARTESIAN COORDINATES (ANGSTROEM)
---------------------------------
  V      0.000000    0.000000    0.155414
  H      0.000000    0.000000    1.844586

 Total Charge           Charge          ....    0
 Multiplicity           Mult            ....    5
 Number of Electrons    NEL             ....   24
 Basis Dimension        Dim             ....  116

ORBITAL ENERGIES
----------------
                 SPIN UP ORBITALS
  NO   OCC          E(Eh)            E(eV)
   0   1.0000    -196.394244     -5344.1591
   1   1.0000     -22.025822      -599.3531
   2   1.0000     -18.538253      -504.4515
   3   1.0000     -18.538251      -504.4514
   4   1.0000     -18.533255      -504.3155
   5   1.0000      -2.580641       -70.2228
   6   1.0000      -1.616246       -43.9803
   7   1.0000      -1.616209       -43.9793
   8   1.0000      -1.613217       -43.8979
   9   1.0000      -0.247953        -6.7471
  10   1.0000      -0.199524        -5.4293
  11   1.0000      -0.179838        -4.8936
  12   1.0000      -0.179749        -4.8912
  13   1.0000      -0.157702        -4.2913
  14   0.0000      -0.111698        -3.0394
  15   0.0000      -0.083202        -2.2640
  16   0.0000      -0.050619        -1.3774
  17   0.0000      -0.050599        -1.3769
  18   0.0000       0.016674         0.4537

                 SPIN DOWN ORBITALS
  NO   OCC          E(Eh)            E(eV)
   0   1.0000    -196.395975     -5344.2062
   1   1.0000     -21.989383      -598.3615
   2   1.0000     -18.509289      -503.6634
   3   1.0000     -18.509274      -503.6629
   4   1.0000     -18.502204      -503.4706
   5   1.0000      -2.432861       -66.2015
   6   1.0000      -1.482072       -40.3292
   7   1.0000      -1.481977       -40.3266
   8   1.0000      -1.456429       -39.6315
   9   1.0000      -0.228436        -6.2161
  10   0.0000      -0.051758        -1.4084
  11   0.0000      -0.047419        -1.2903
  12   0.0000      -0.020756        -0.5648
  13   0.0000      -0.015953        -0.4341
  14   0.0000      -0.015929        -0.4334

MULLIKEN ATOMIC CHARGES AND SPIN POPULATIONS
--------------------------------------------
   0 V :    0.205561    4.152251
   1 H :   -0.205561   -0.152251
Sum of atomic charges         :    0.0000000

LOEWDIN ATOMIC CHARGES AND SPIN POPULATIONS
-------------------------------------------
   0 V :    0.719876    3.837724
   1 H :   -0.719876    0.162276

  Mayer bond orders larger than 0.100000
B(  0-V ,  1-H ) :   1.0098

Dispersion correction           -0.000091026
FINAL SINGLE POINT ENERGY      -944.595121153172

DIPOLE MOMENT
-------------
                                X             Y             Z
Electronic contribution:      0.00000       0.00000      -2.64317
Nuclear contribution   :      0.00000       0.00000       1.70553
                        -----------------------------------------
Total Dipole Moment    :      0.00000       0.00000      -0.93763
                        -----------------------------------------
Magnitude (a.u.)       :      0.93763
Magnitude (Debye)      :      2.38327

Rotational constants in cm-1:     0.000000     5.977214     5.977214
Rotational constants in MHz :     0.000000 179192.381350 179192.381350

                             ****ORCA TERMINATED NORMALLY****
TOTAL RUN TIME: 0 days 0 hours 0 minutes 6 seconds 833 msec
