                         Program Version 4.2.0 -  RELEASE  -
|  1> #
|  2> # 16_VBr scanfunc/aug-cc-pvtz
|  3> #
|  4> ! scanfunc d3bj aug-cc-pvtz def2/j grid4 nofinalgrid
|  5>
|  6> *xyz 0 5
|  7>   V   0.00000000000000      0.00000000000000     -0.18045152200616
|  8>   Br  0.00000000000000      0.00000000000000      2.18045152200616
|  9> *
| 10>
| 11> %pal
| 12> nprocs 24
| 13> end
| 14>
| 15>
| 16>                          ****END OF INPUT****

CARTESIAN COORDINATES (ANGSTROEM)
---------------------------------
  V      0.000000    0.000000   -0.180452
  Br     0.000000    0.000000    2.180452

 Total Charge           Charge          ....    0
 Multiplicity           Mult            ....    5
 Number of Electrons    NEL             ....   58
 Basis Dimension        Dim             ....  152

ORBITAL ENERGIES
----------------
                 SPIN UP ORBITALS
  NO   OCC          E(Eh)            E(eV)
   0   1.0000    -482.234571    -13122.2698
   1   1.0000    -196.429536     -5345.1194
   2   1.0000     -62.275143     -1694.5928
   3   1.0000     -56.076511     -1525.9194
   4   1.0000     -56.076511     -1525.9194
   5   1.0000     -56.075654     -1525.8961
   6   1.0000     -22.062711      -600.3569
   7   1.0000     -18.574910      -505.4490
   8   1.0000     -18.574910      -505.4490
   9   1.0000     -18.570087      -505.3178
  10   1.0000      -8.622618      -234.6334
  11   1.0000      -6.410017      -174.4254
  12   1.0000      -6.407670      -174.3616
  13   1.0000      -6.407670      -174.3616
  14   1.0000      -2.617975       -71.2387
  15   1.0000      -2.489637       -67.7465
  16   1.0000      -2.488807       -67.7239
  17   1.0000      -2.488807       -67.7239
  18   1.0000      -2.486932       -67.6728
  19   1.0000      -2.486880       -67.6714
  20   1.0000      -1.652054       -44.9547
  21   1.0000      -1.652054       -44.9547
  22   1.0000      -1.651961       -44.9521
  23   1.0000      -0.691837       -18.8258
  24   1.0000      -0.299088        -8.1386
  25   1.0000      -0.269981        -7.3466
  26   1.0000      -0.269981        -7.3466
  27   1.0000      -0.230212        -6.2644
  28   1.0000      -0.198087        -5.3902
  29   1.0000      -0.198087        -5.3902
  30   1.0000      -0.182818        -4.9747
  31   0.0000      -0.143281        -3.8989
  32   0.0000      -0.118219        -3.2169
  33   0.0000      -0.051283        -1.3955
  34   0.0000      -0.051283        -1.3955
  35   0.0000       0.010809         0.2941

                 SPIN DOWN ORBITALS
  NO   OCC          E(Eh)            E(eV)
   0   1.0000    -482.234590    -13122.2703
   1   1.0000    -196.431259     -5345.1663
   2   1.0000     -62.275175     -1694.5937
   3   1.0000     -56.076781     -1525.9268
   4   1.0000     -56.076022     -1525.9061
   5   1.0000     -56.076022     -1525.9061
   6   1.0000     -22.026311      -599.3664
   7   1.0000     -18.546349      -504.6718
   8   1.0000     -18.546349      -504.6718
   9   1.0000     -18.538187      -504.4497
  10   1.0000      -8.622708      -234.6358
  11   1.0000      -6.410548      -174.4399
  12   1.0000      -6.407568      -174.3588
  13   1.0000      -6.407568      -174.3588
  14   1.0000      -2.490131       -67.7599
  15   1.0000      -2.489186       -67.7342
  16   1.0000      -2.489186       -67.7342
  17   1.0000      -2.486752       -67.6680
  18   1.0000      -2.486699       -67.6665
  19   1.0000      -2.469866       -67.2085
  20   1.0000      -1.517267       -41.2869
  21   1.0000      -1.517267       -41.2869
  22   1.0000      -1.497209       -40.7411
  23   1.0000      -0.690413       -18.7871
  24   1.0000      -0.290660        -7.9093
  25   1.0000      -0.256558        -6.9813
  26   1.0000      -0.256558        -6.9813
  27   0.0000      -0.085127        -2.3164
  28   0.0000      -0.077719        -2.1148
  29   0.0000      -0.053196        -1.4475
  30   0.0000      -0.046658        -1.2696
  31   0.0000      -0.040466        -1.1011

MULLIKEN ATOMIC CHARGES AND SPIN POPULATIONS
--------------------------------------------
   0 V :    0.312098    4.053697
   1 Br:   -0.312098   -0.053697
Sum of atomic charges         :   -0.0000000

LOEWDIN ATOMIC CHARGES AND SPIN POPULATIONS
-------------------------------------------
   0 V :   -0.097188    3.846421
   1 Br:    0.097188    0.153579

  Mayer bond orders larger than 0.100000
B(  0-V ,  1-Br) :   1.2155

Dispersion correction           -0.000220593
FINAL SINGLE POINT ENERGY     -3518.610219968732

DIPOLE MOMENT
-------------
                                X             Y             Z
Electronic contribution:     -0.00000      -0.00000       0.27835
Nuclear contribution   :      0.00000       0.00000      -1.86860
                        -----------------------------------------
Total Dipole Moment    :     -0.00000      -0.00000      -1.59025
                        -----------------------------------------
Magnitude (a.u.)       :      1.59025
Magnitude (Debye)      :      4.04210

Rotational constants in cm-1:     0.000000     0.097224     0.097224
Rotational constants in MHz :     0.000000  2914.715129  2914.715129

                             ****ORCA TERMINATED NORMALLY****
TOTAL RUN TIME: 0 days 0 hours 0 minutes 11 seconds 282 msec
