                         Program Version 4.2.0 -  RELEASE  -
|  1> #
|  2> # 17_VO scanfunc/aug-cc-pvtz
|  3> #
|  4> ! scanfunc d3bj aug-cc-pvtz def2/j grid4 nofinalgrid
|  5>
|  6> *xyz 0 4
|  7>   V   0.00000000000000      0.00000000000000      0.20415600493149
|  8>   O   0.00000000000000      0.00000000000000      1.79584399506851
|  9> *
| 10>
| 11> %pal
| 12> nprocs 24
| 13> end
| 14>
| 15>
| 16>                          ****END OF INPUT****

CARTESIAN COORDINATES (ANGSTROEM)
---------------------------------
  V      0.000000    0.000000    0.204156
  O      0.000000    0.000000    1.795844

 Total Charge           Charge          ....    0
 Multiplicity           Mult            ....    4
 Number of Electrons    NEL             ....   31
 Basis Dimension        Dim             ....  139

ORBITAL ENERGIES
----------------
                 SPIN UP ORBITALS
  NO   OCC          E(Eh)            E(eV)
   0   1.0000    -196.425184     -5345.0010
   1   1.0000     -22.061977      -600.3369
   2   1.0000     -18.942336      -515.4472
   3   1.0000     -18.579654      -505.5781
   4   1.0000     -18.572711      -505.3892
   5   1.0000     -18.572711      -505.3892
   6   1.0000      -2.607162       -70.9445
   7   1.0000      -1.648708       -44.8636
   8   1.0000      -1.638020       -44.5728
   9   1.0000      -1.638020       -44.5728
  10   1.0000      -0.835319       -22.7302
  11   1.0000      -0.314766        -8.5652
  12   1.0000      -0.294901        -8.0247
  13   1.0000      -0.294897        -8.0246
  14   1.0000      -0.179949        -4.8967
  15   1.0000      -0.176273        -4.7966
  16   1.0000      -0.176223        -4.7953
  17   0.0000      -0.111602        -3.0368
  18   0.0000      -0.111601        -3.0368
  19   0.0000      -0.085909        -2.3377
  20   0.0000      -0.014276        -0.3885
  21   0.0000      -0.014275        -0.3884

                 SPIN DOWN ORBITALS
  NO   OCC          E(Eh)            E(eV)
   0   1.0000    -196.426696     -5345.0421
   1   1.0000     -22.027721      -599.4047
   2   1.0000     -18.941894      -515.4351
   3   1.0000     -18.567115      -505.2369
   4   1.0000     -18.540339      -504.5083
   5   1.0000     -18.540339      -504.5083
   6   1.0000      -2.489810       -67.7512
   7   1.0000      -1.588776       -43.2328
   8   1.0000      -1.502352       -40.8811
   9   1.0000      -1.502351       -40.8811
  10   1.0000      -0.860209       -23.4075
  11   1.0000      -0.309113        -8.4114
  12   1.0000      -0.305225        -8.3056
  13   1.0000      -0.305223        -8.3055
  14   0.0000      -0.076066        -2.0699
  15   0.0000      -0.050344        -1.3699
  16   0.0000      -0.050343        -1.3699
  17   0.0000      -0.034765        -0.9460
  18   0.0000      -0.034675        -0.9436

MULLIKEN ATOMIC CHARGES AND SPIN POPULATIONS
--------------------------------------------
   0 V :    0.478757    3.400214
   1 O :   -0.478757   -0.400214
Sum of atomic charges         :   -0.0000000

LOEWDIN ATOMIC CHARGES AND SPIN POPULATIONS
-------------------------------------------
   0 V :    0.570894    3.124109
   1 O :   -0.570894   -0.124109

  Mayer bond orders larger than 0.100000
B(  0-V ,  1-O ) :   2.3235

Dispersion correction           -0.000115887
FINAL SINGLE POINT ENERGY     -1019.297089808431

DIPOLE MOMENT
-------------
                                X             Y             Z
Electronic contribution:     -0.00000       0.00000      -3.16931
Nuclear contribution   :      0.00000       0.00000       1.77684
                        -----------------------------------------
Total Dipole Moment    :     -0.00000       0.00000      -1.39247
                        -----------------------------------------
Magnitude (a.u.)       :      1.39247
Magnitude (Debye)      :      3.53939

Rotational constants in cm-1:     0.000000     0.546523     0.546523
Rotational constants in MHz :     0.000000 16384.348098 16384.348098

                             ****ORCA TERMINATED NORMALLY****
TOTAL RUN TIME: 0 days 0 hours 0 minutes 8 seconds 520 msec
