                         Program Version 4.2.0 -  RELEASE  -
|  1> #
|  2> # 19_CrH scanfunc/aug-cc-pvtz
|  3> #
|  4> ! scanfunc d3bj aug-cc-pvtz def2/j grid4 nofinalgrid
|  5>
|  6> *xyz 0 6
|  7>   Cr  0.00000000000000      0.00000000000000      0.17036458455703
|  8>   H   0.00000000000000      0.00000000000000      1.82963541544297
|  9> *
| 10>
| 11> %pal
| 12> nprocs 24
| 13> end
| 14>
| 15>
| 16>                          ****END OF INPUT****

CARTESIAN COORDINATES (ANGSTROEM)
---------------------------------
  Cr     0.000000    0.000000    0.170365
  H      0.000000    0.000000    1.829635

 Total Charge           Charge          ....    0
 Multiplicity           Mult            ....    6
 Number of Electrons    NEL             ....   25
 Basis Dimension        Dim             ....  116

ORBITAL ENERGIES
----------------
                 SPIN UP ORBITALS
  NO   OCC          E(Eh)            E(eV)
   0   1.0000    -215.039432     -5851.5204
   1   1.0000     -24.580167      -668.8604
   2   1.0000     -20.793546      -565.8211
   3   1.0000     -20.792226      -565.7852
   4   1.0000     -20.792226      -565.7852
   5   1.0000      -2.854109       -77.6643
   6   1.0000      -1.793361       -48.7998
   7   1.0000      -1.793361       -48.7998
   8   1.0000      -1.793108       -48.7930
   9   1.0000      -0.253565        -6.8998
  10   1.0000      -0.189655        -5.1608
  11   1.0000      -0.189655        -5.1608
  12   1.0000      -0.173879        -4.7315
  13   1.0000      -0.173864        -4.7311
  14   1.0000      -0.171612        -4.6698
  15   0.0000      -0.093661        -2.5487
  16   0.0000      -0.044410        -1.2085
  17   0.0000      -0.044410        -1.2085
  18   0.0000       0.012881         0.3505
  19   0.0000       0.023701         0.6449

                 SPIN DOWN ORBITALS
  NO   OCC          E(Eh)            E(eV)
   0   1.0000    -215.041684     -5851.5817
   1   1.0000     -24.436354      -664.9470
   2   1.0000     -20.704696      -563.4034
   3   1.0000     -20.699057      -563.2500
   4   1.0000     -20.699057      -563.2500
   5   1.0000      -2.677468       -72.8576
   6   1.0000      -1.623928       -44.1893
   7   1.0000      -1.607539       -43.7434
   8   1.0000      -1.607539       -43.7434
   9   1.0000      -0.237308        -6.4575
  10   0.0000      -0.033917        -0.9229
  11   0.0000      -0.007161        -0.1949
  12   0.0000       0.001541         0.0419
  13   0.0000       0.001541         0.0419
  14   0.0000       0.017396         0.4734

MULLIKEN ATOMIC CHARGES AND SPIN POPULATIONS
--------------------------------------------
   0 Cr:    0.263939    5.211725
   1 H :   -0.263939   -0.211725
Sum of atomic charges         :   -0.0000000

LOEWDIN ATOMIC CHARGES AND SPIN POPULATIONS
-------------------------------------------
   0 Cr:    0.601797    4.900438
   1 H :   -0.601797    0.099562

  Mayer bond orders larger than 0.100000
B(  0-Cr,  1-H ) :   0.9461

Dispersion correction           -0.000090010
FINAL SINGLE POINT ENERGY     -1045.165109876876

DIPOLE MOMENT
-------------
                                X             Y             Z
Electronic contribution:     -0.00000      -0.00000      -2.75101
Nuclear contribution   :      0.00000       0.00000       1.64492
                        -----------------------------------------
Total Dipole Moment    :     -0.00000      -0.00000      -1.10609
                        -----------------------------------------
Magnitude (a.u.)       :      1.10609
Magnitude (Debye)      :      2.81145

Rotational constants in cm-1:     0.000000     6.192127     6.192127
Rotational constants in MHz :     0.000000 185635.310837 185635.310837

                             ****ORCA TERMINATED NORMALLY****
TOTAL RUN TIME: 0 days 0 hours 0 minutes 5 seconds 805 msec
