                         Program Version 4.2.0 -  RELEASE  -
|  1> #
|  2> # 20_CrF scanfunc/aug-cc-pvtz
|  3> #
|  4> ! scanfunc d3bj aug-cc-pvtz def2/j grid4 nofinalgrid
|  5>
|  6> *xyz 0 6
|  7>   Cr  0.00000000000000      0.00000000000000      0.10659678981823
|  8>   F   0.00000000000000      0.00000000000000      1.89340321018177
|  9> *
| 10>
| 11> %pal
| 12> nprocs 24
| 13> end
| 14>
| 15>
| 16>                          ****END OF INPUT****

CARTESIAN COORDINATES (ANGSTROEM)
---------------------------------
  Cr     0.000000    0.000000    0.106597
  F      0.000000    0.000000    1.893403

 Total Charge           Charge          ....    0
 Multiplicity           Mult            ....    6
 Number of Electrons    NEL             ....   33
 Basis Dimension        Dim             ....  139

ORBITAL ENERGIES
----------------
                 SPIN UP ORBITALS
  NO   OCC          E(Eh)            E(eV)
   0   1.0000    -215.083594     -5852.7222
   1   1.0000     -24.627785      -670.1561
   2   1.0000     -24.439365      -665.0289
   3   1.0000     -20.842126      -567.1431
   4   1.0000     -20.840101      -567.0880
   5   1.0000     -20.840101      -567.0880
   6   1.0000      -2.888035       -78.5874
   7   1.0000      -1.830270       -49.8042
   8   1.0000      -1.829431       -49.7814
   9   1.0000      -1.829431       -49.7814
  10   1.0000      -1.048699       -28.5366
  11   1.0000      -0.353081        -9.6078
  12   1.0000      -0.338823        -9.2198
  13   1.0000      -0.338823        -9.2198
  14   1.0000      -0.208909        -5.6847
  15   1.0000      -0.208909        -5.6847
  16   1.0000      -0.206038        -5.6066
  17   1.0000      -0.205985        -5.6051
  18   1.0000      -0.190690        -5.1889
  19   0.0000      -0.118198        -3.2163
  20   0.0000      -0.039799        -1.0830
  21   0.0000      -0.039799        -1.0830
  22   0.0000       0.014400         0.3918
  23   0.0000       0.017579         0.4783

                 SPIN DOWN ORBITALS
  NO   OCC          E(Eh)            E(eV)
   0   1.0000    -215.085680     -5852.7789
   1   1.0000     -24.486951      -666.3238
   2   1.0000     -24.440101      -665.0490
   3   1.0000     -20.758596      -564.8701
   4   1.0000     -20.746523      -564.5416
   5   1.0000     -20.746523      -564.5416
   6   1.0000      -2.727443       -74.2175
   7   1.0000      -1.684146       -45.8279
   8   1.0000      -1.651505       -44.9397
   9   1.0000      -1.651505       -44.9397
  10   1.0000      -1.046139       -28.4669
  11   1.0000      -0.355156        -9.6643
  12   1.0000      -0.320263        -8.7148
  13   1.0000      -0.320263        -8.7148
  14   0.0000      -0.064080        -1.7437
  15   0.0000      -0.031716        -0.8630
  16   0.0000      -0.020570        -0.5597
  17   0.0000      -0.020532        -0.5587
  18   0.0000      -0.018198        -0.4952

MULLIKEN ATOMIC CHARGES AND SPIN POPULATIONS
--------------------------------------------
   0 Cr:    0.564228    5.036698
   1 F :   -0.564228   -0.036698
Sum of atomic charges         :    0.0000000

LOEWDIN ATOMIC CHARGES AND SPIN POPULATIONS
-------------------------------------------
   0 Cr:    0.372008    4.872790
   1 F :   -0.372008    0.127210

  Mayer bond orders larger than 0.100000
B(  0-Cr,  1-F ) :   0.7300

Dispersion correction           -0.000083746
FINAL SINGLE POINT ENERGY     -1144.507857333261

DIPOLE MOMENT
-------------
                                X             Y             Z
Electronic contribution:     -0.00000       0.00000      -1.98837
Nuclear contribution   :      0.00000       0.00000       0.57299
                        -----------------------------------------
Total Dipole Moment    :     -0.00000       0.00000      -1.41538
                        -----------------------------------------
Magnitude (a.u.)       :      1.41538
Magnitude (Debye)      :      3.59761

Rotational constants in cm-1:     0.000000     0.379469     0.379469
Rotational constants in MHz :     0.000000 11376.206933 11376.206933

                             ****ORCA TERMINATED NORMALLY****
TOTAL RUN TIME: 0 days 0 hours 0 minutes 8 seconds 78 msec
