                         Program Version 4.2.0 -  RELEASE  -
|  1> #
|  2> # 21_CrCl scanfunc/aug-cc-pvtz
|  3> #
|  4> ! scanfunc d3bj aug-cc-pvtz def2/j grid4 nofinalgrid
|  5>
|  6> *xyz 0 6
|  7>   Cr  0.00000000000000      0.00000000000000     -0.09885250745251
|  8>   Cl  0.00000000000000      0.00000000000000      2.09885250745250
|  9> *
| 10>
| 11> %pal
| 12> nprocs 24
| 13> end
| 14>
| 15>
| 16>                          ****END OF INPUT****

CARTESIAN COORDINATES (ANGSTROEM)
---------------------------------
  Cr     0.000000    0.000000   -0.098853
  Cl     0.000000    0.000000    2.098853

 Total Charge           Charge          ....    0
 Multiplicity           Mult            ....    6
 Number of Electrons    NEL             ....   41
 Basis Dimension        Dim             ....  143

ORBITAL ENERGIES
----------------
                 SPIN UP ORBITALS
  NO   OCC          E(Eh)            E(eV)
   0   1.0000    -215.074912     -5852.4859
   1   1.0000    -101.233985     -2754.7168
   2   1.0000     -24.615546      -669.8231
   3   1.0000     -20.829242      -566.7925
   4   1.0000     -20.827555      -566.7466
   5   1.0000     -20.827555      -566.7466
   6   1.0000      -9.289886      -252.7906
   7   1.0000      -7.044756      -191.6976
   8   1.0000      -7.042666      -191.6407
   9   1.0000      -7.042666      -191.6407
  10   1.0000      -2.886845       -78.5551
  11   1.0000      -1.830631       -49.8140
  12   1.0000      -1.824944       -49.6592
  13   1.0000      -1.824944       -49.6592
  14   1.0000      -0.723025       -19.6745
  15   1.0000      -0.311590        -8.4788
  16   1.0000      -0.282324        -7.6824
  17   1.0000      -0.282324        -7.6824
  18   1.0000      -0.206390        -5.6161
  19   1.0000      -0.206390        -5.6161
  20   1.0000      -0.203483        -5.5371
  21   1.0000      -0.203461        -5.5365
  22   1.0000      -0.194856        -5.3023
  23   0.0000      -0.130553        -3.5525
  24   0.0000      -0.043065        -1.1719
  25   0.0000      -0.043065        -1.1719
  26   0.0000       0.009602         0.2613
  27   0.0000       0.014838         0.4038

                 SPIN DOWN ORBITALS
  NO   OCC          E(Eh)            E(eV)
   0   1.0000    -215.077095     -5852.5453
   1   1.0000    -101.234751     -2754.7376
   2   1.0000     -24.471404      -665.9008
   3   1.0000     -20.740953      -564.3900
   4   1.0000     -20.733571      -564.1891
   5   1.0000     -20.733571      -564.1891
   6   1.0000      -9.287977      -252.7387
   7   1.0000      -7.045942      -191.7298
   8   1.0000      -7.042180      -191.6275
   9   1.0000      -7.042180      -191.6275
  10   1.0000      -2.714576       -73.8674
  11   1.0000      -1.664553       -45.2948
  12   1.0000      -1.642445       -44.6932
  13   1.0000      -1.642445       -44.6932
  14   1.0000      -0.728402       -19.8208
  15   1.0000      -0.305587        -8.3154
  16   1.0000      -0.269098        -7.3225
  17   1.0000      -0.269098        -7.3225
  18   0.0000      -0.063892        -1.7386
  19   0.0000      -0.037194        -1.0121
  20   0.0000      -0.022426        -0.6102
  21   0.0000      -0.022426        -0.6102
  22   0.0000      -0.016556        -0.4505

MULLIKEN ATOMIC CHARGES AND SPIN POPULATIONS
--------------------------------------------
   0 Cr:    0.347985    5.101481
   1 Cl:   -0.347985   -0.101481
Sum of atomic charges         :    0.0000000

LOEWDIN ATOMIC CHARGES AND SPIN POPULATIONS
-------------------------------------------
   0 Cr:    0.005724    4.906807
   1 Cl:   -0.005724    0.093193

  Mayer bond orders larger than 0.100000
B(  0-Cr,  1-Cl) :   1.0834

Dispersion correction           -0.000204955
FINAL SINGLE POINT ENERGY     -1504.876133405677

DIPOLE MOMENT
-------------
                                X             Y             Z
Electronic contribution:      0.00000       0.00000      -3.40867
Nuclear contribution   :      0.00000       0.00000       1.57322
                        -----------------------------------------
Total Dipole Moment    :      0.00000       0.00000      -1.83545
                        -----------------------------------------
Magnitude (a.u.)       :      1.83545
Magnitude (Debye)      :      4.66535

Rotational constants in cm-1:     0.000000     0.165568     0.165568
Rotational constants in MHz :     0.000000  4963.604658  4963.604658

                             ****ORCA TERMINATED NORMALLY****
TOTAL RUN TIME: 0 days 0 hours 0 minutes 7 seconds 603 msec
