                         Program Version 4.2.0 -  RELEASE  -
|  1> #
|  2> # 22_CrBr scanfunc/aug-cc-pvtz
|  3> #
|  4> ! scanfunc d3bj aug-cc-pvtz def2/j grid4 nofinalgrid
|  5>
|  6> *xyz 0 6
|  7>   Cr  0.00000000000000      0.00000000000000     -0.17198862284832
|  8>   Br  0.00000000000000      0.00000000000000      2.17198862284831
|  9> *
| 10>
| 11> %pal
| 12> nprocs 24
| 13> end
| 14>
| 15>
| 16>                          ****END OF INPUT****

CARTESIAN COORDINATES (ANGSTROEM)
---------------------------------
  Cr     0.000000    0.000000   -0.171989
  Br     0.000000    0.000000    2.171989

 Total Charge           Charge          ....    0
 Multiplicity           Mult            ....    6
 Number of Electrons    NEL             ....   59
 Basis Dimension        Dim             ....  152

ORBITAL ENERGIES
----------------
                 SPIN UP ORBITALS
  NO   OCC          E(Eh)            E(eV)
   0   1.0000    -482.231324    -13122.1814
   1   1.0000    -215.072424     -5852.4182
   2   1.0000     -62.271449     -1694.4923
   3   1.0000     -56.072946     -1525.8224
   4   1.0000     -56.072946     -1525.8224
   5   1.0000     -56.071740     -1525.7896
   6   1.0000     -24.611910      -669.7241
   7   1.0000     -20.825463      -566.6897
   8   1.0000     -20.823831      -566.6452
   9   1.0000     -20.823816      -566.6448
  10   1.0000      -8.618889      -234.5319
  11   1.0000      -6.406847      -174.3392
  12   1.0000      -6.403662      -174.2525
  13   1.0000      -6.403662      -174.2525
  14   1.0000      -2.886168       -78.5366
  15   1.0000      -2.486275       -67.6550
  16   1.0000      -2.485266       -67.6275
  17   1.0000      -2.485266       -67.6275
  18   1.0000      -2.482760       -67.5593
  19   1.0000      -2.482707       -67.5579
  20   1.0000      -1.830112       -49.7999
  21   1.0000      -1.823685       -49.6250
  22   1.0000      -1.823573       -49.6220
  23   1.0000      -0.686358       -18.6767
  24   1.0000      -0.297958        -8.1079
  25   1.0000      -0.266117        -7.2414
  26   1.0000      -0.266100        -7.2410
  27   1.0000      -0.204051        -5.5525
  28   1.0000      -0.203998        -5.5511
  29   1.0000      -0.202654        -5.5145
  30   1.0000      -0.202633        -5.5139
  31   1.0000      -0.196195        -5.3387
  32   0.0000      -0.132478        -3.6049
  33   0.0000      -0.044493        -1.2107
  34   0.0000      -0.044486        -1.2105
  35   0.0000       0.007979         0.2171
  36   0.0000       0.013584         0.3696

                 SPIN DOWN ORBITALS
  NO   OCC          E(Eh)            E(eV)
   0   1.0000    -482.231569    -13122.1881
   1   1.0000    -215.074623     -5852.4780
   2   1.0000     -62.272020     -1694.5078
   3   1.0000     -56.073950     -1525.8498
   4   1.0000     -56.072678     -1525.8151
   5   1.0000     -56.072678     -1525.8151
   6   1.0000     -24.466819      -665.7760
   7   1.0000     -20.735960      -564.2542
   8   1.0000     -20.729665      -564.0829
   9   1.0000     -20.729604      -564.0812
  10   1.0000      -8.619407      -234.5460
  11   1.0000      -6.408044      -174.3718
  12   1.0000      -6.403833      -174.2572
  13   1.0000      -6.403832      -174.2571
  14   1.0000      -2.710955       -73.7688
  15   1.0000      -2.487288       -67.6826
  16   1.0000      -2.486142       -67.6514
  17   1.0000      -2.486142       -67.6514
  18   1.0000      -2.482759       -67.5593
  19   1.0000      -2.482706       -67.5579
  20   1.0000      -1.660025       -45.1716
  21   1.0000      -1.639544       -44.6143
  22   1.0000      -1.639427       -44.6111
  23   1.0000      -0.688158       -18.7257
  24   1.0000      -0.288791        -7.8584
  25   1.0000      -0.250766        -6.8237
  26   1.0000      -0.250766        -6.8237
  27   0.0000      -0.064101        -1.7443
  28   0.0000      -0.038118        -1.0372
  29   0.0000      -0.022332        -0.6077
  30   0.0000      -0.022326        -0.6075
  31   0.0000      -0.015403        -0.4191

MULLIKEN ATOMIC CHARGES AND SPIN POPULATIONS
--------------------------------------------
   0 Cr:    0.219151    5.196732
   1 Br:   -0.219151   -0.196732
Sum of atomic charges         :   -0.0000000

LOEWDIN ATOMIC CHARGES AND SPIN POPULATIONS
-------------------------------------------
   0 Cr:   -0.086832    4.924739
   1 Br:    0.086832    0.075261

  Mayer bond orders larger than 0.100000
B(  0-Cr,  1-Br) :   1.1410

Dispersion correction           -0.000214865
FINAL SINGLE POINT ENERGY     -3619.174476530067

DIPOLE MOMENT
-------------
                                X             Y             Z
Electronic contribution:      0.00000       0.00000       1.39575
Nuclear contribution   :      0.00000       0.00000      -3.27761
                        -----------------------------------------
Total Dipole Moment    :      0.00000       0.00000      -1.88186
                        -----------------------------------------
Magnitude (a.u.)       :      1.88186
Magnitude (Debye)      :      4.78330

Rotational constants in cm-1:     0.000000     0.097406     0.097406
Rotational constants in MHz :     0.000000  2920.152240  2920.152240

                             ****ORCA TERMINATED NORMALLY****
TOTAL RUN TIME: 0 days 0 hours 0 minutes 13 seconds 0 msec
