                         Program Version 4.2.0 -  RELEASE  -
|  1> #
|  2> # 28_MnBr scanfunc/aug-cc-pvtz
|  3> #
|  4> ! scanfunc d3bj aug-cc-pvtz def2/j grid4 nofinalgrid
|  5>
|  6> *xyz 0 7
|  7>   Mn  0.00000000000000      0.00000000000000     -0.18897622296313
|  8>   Br  0.00000000000000      0.00000000000000      2.18897622296313
|  9> *
| 10>
| 11> %pal
| 12> nprocs 24
| 13> end
| 14>
| 15>
| 16>                          ****END OF INPUT****

CARTESIAN COORDINATES (ANGSTROEM)
---------------------------------
  Mn     0.000000    0.000000   -0.188976
  Br     0.000000    0.000000    2.188976

 Total Charge           Charge          ....    0
 Multiplicity           Mult            ....    7
 Number of Electrons    NEL             ....   60
 Basis Dimension        Dim             ....  152

ORBITAL ENERGIES
----------------
                 SPIN UP ORBITALS
  NO   OCC          E(Eh)            E(eV)
   0   1.0000    -482.245271    -13122.5610
   1   1.0000    -234.951959     -6393.3678
   2   1.0000     -62.285885     -1694.8851
   3   1.0000     -56.087222     -1526.2109
   4   1.0000     -56.086813     -1526.1998
   5   1.0000     -56.086813     -1526.1998
   6   1.0000     -27.349042      -744.2053
   7   1.0000     -23.333901      -634.9477
   8   1.0000     -23.333901      -634.9477
   9   1.0000     -23.331280      -634.8764
  10   1.0000      -8.633036      -234.9169
  11   1.0000      -6.420221      -174.7031
  12   1.0000      -6.418155      -174.6469
  13   1.0000      -6.418155      -174.6469
  14   1.0000      -3.290341       -89.5347
  15   1.0000      -2.499827       -68.0238
  16   1.0000      -2.499124       -68.0046
  17   1.0000      -2.499124       -68.0046
  18   1.0000      -2.497425       -67.9584
  19   1.0000      -2.497380       -67.9572
  20   1.0000      -2.143054       -58.3155
  21   1.0000      -2.143054       -58.3155
  22   1.0000      -2.133404       -58.0529
  23   1.0000      -0.706370       -19.2213
  24   1.0000      -0.360697        -9.8151
  25   1.0000      -0.346428        -9.4268
  26   1.0000      -0.346423        -9.4266
  27   1.0000      -0.346242        -9.4217
  28   1.0000      -0.346242        -9.4217
  29   1.0000      -0.294609        -8.0167
  30   1.0000      -0.259036        -7.0487
  31   1.0000      -0.259036        -7.0487
  32   1.0000      -0.190383        -5.1806
  33   0.0000      -0.064868        -1.7651
  34   0.0000      -0.064868        -1.7651
  35   0.0000       0.002196         0.0598
  36   0.0000       0.019367         0.5270
  37   0.0000       0.032047         0.8720

                 SPIN DOWN ORBITALS
  NO   OCC          E(Eh)            E(eV)
   0   1.0000    -482.244701    -13122.5454
   1   1.0000    -234.950774     -6393.3356
   2   1.0000     -62.284593     -1694.8499
   3   1.0000     -56.085798     -1526.1721
   4   1.0000     -56.085798     -1526.1721
   5   1.0000     -56.085641     -1526.1679
   6   1.0000     -27.227201      -740.8898
   7   1.0000     -23.244831      -632.5240
   8   1.0000     -23.244831      -632.5240
   9   1.0000     -23.243463      -632.4868
  10   1.0000      -8.632045      -234.8899
  11   1.0000      -6.419140      -174.6737
  12   1.0000      -6.417321      -174.6242
  13   1.0000      -6.417321      -174.6242
  14   1.0000      -3.073688       -83.6393
  15   1.0000      -2.498853       -67.9972
  16   1.0000      -2.498227       -67.9802
  17   1.0000      -2.498227       -67.9802
  18   1.0000      -2.496724       -67.9393
  19   1.0000      -2.496680       -67.9381
  20   1.0000      -1.921257       -52.2800
  21   1.0000      -1.921257       -52.2800
  22   1.0000      -1.914819       -52.1049
  23   1.0000      -0.697716       -18.9858
  24   1.0000      -0.307688        -8.3726
  25   1.0000      -0.265141        -7.2149
  26   1.0000      -0.265141        -7.2149
  27   0.0000      -0.120374        -3.2755
  28   0.0000      -0.120360        -3.2752
  29   0.0000      -0.116009        -3.1568
  30   0.0000      -0.114109        -3.1051
  31   0.0000      -0.114109        -3.1051

MULLIKEN ATOMIC CHARGES AND SPIN POPULATIONS
--------------------------------------------
   0 Mn:    0.392375    5.860496
   1 Br:   -0.392375    0.139504
Sum of atomic charges         :   -0.0000000

LOEWDIN ATOMIC CHARGES AND SPIN POPULATIONS
-------------------------------------------
   0 Mn:    0.023118    5.720506
   1 Br:   -0.023118    0.279494

  Mayer bond orders larger than 0.100000
B(  0-Mn,  1-Br) :   1.0516

Dispersion correction           -0.000182820
FINAL SINGLE POINT ENERGY     -3725.725185683898

DIPOLE MOMENT
-------------
                                X             Y             Z
Electronic contribution:     -0.00000      -0.00000       1.42726
Nuclear contribution   :      0.00000       0.00000      -2.48612
                        -----------------------------------------
Total Dipole Moment    :     -0.00000      -0.00000      -1.05886
                        -----------------------------------------
Magnitude (a.u.)       :      1.05886
Magnitude (Debye)      :      2.69141

Rotational constants in cm-1:     0.000000     0.091574     0.091574
Rotational constants in MHz :     0.000000  2745.330169  2745.330169

                             ****ORCA TERMINATED NORMALLY****
TOTAL RUN TIME: 0 days 0 hours 0 minutes 8 seconds 683 msec
