                         Program Version 4.2.0 -  RELEASE  -
|  1> #
|  2> # 29_MnO scanfunc/aug-cc-pvtz
|  3> #
|  4> ! scanfunc d3bj aug-cc-pvtz def2/j grid4 nofinalgrid
|  5>
|  6> *xyz 0 6
|  7>   Mn  0.00000000000000      0.00000000000000      0.18548662877309
|  8>   O   0.00000000000000      0.00000000000000      1.81451337122691
|  9> *
| 10>
| 11> %pal
| 12> nprocs 24
| 13> end
| 14>
| 15>
| 16>                          ****END OF INPUT****

CARTESIAN COORDINATES (ANGSTROEM)
---------------------------------
  Mn     0.000000    0.000000    0.185487
  O      0.000000    0.000000    1.814513

 Total Charge           Charge          ....    0
 Multiplicity           Mult            ....    6
 Number of Electrons    NEL             ....   33
 Basis Dimension        Dim             ....  139

ORBITAL ENERGIES
----------------
                 SPIN UP ORBITALS
  NO   OCC          E(Eh)            E(eV)
   0   1.0000    -234.914566     -6392.3503
   1   1.0000     -27.306233      -743.0404
   2   1.0000     -23.294276      -633.8695
   3   1.0000     -23.294276      -633.8695
   4   1.0000     -23.287062      -633.6732
   5   1.0000     -18.929884      -515.1083
   6   1.0000      -3.240483       -88.1780
   7   1.0000      -2.094655       -56.9985
   8   1.0000      -2.094655       -56.9985
   9   1.0000      -2.083428       -56.6929
  10   1.0000      -0.832528       -22.6542
  11   1.0000      -0.338119        -9.2007
  12   1.0000      -0.334119        -9.0918
  13   1.0000      -0.334119        -9.0918
  14   1.0000      -0.301510        -8.2045
  15   1.0000      -0.301496        -8.2041
  16   1.0000      -0.226619        -6.1666
  17   1.0000      -0.203693        -5.5428
  18   1.0000      -0.203693        -5.5428
  19   0.0000      -0.128404        -3.4941
  20   0.0000      -0.033824        -0.9204
  21   0.0000      -0.033824        -0.9204
  22   0.0000       0.013980         0.3804
  23   0.0000       0.019514         0.5310

                 SPIN DOWN ORBITALS
  NO   OCC          E(Eh)            E(eV)
   0   1.0000    -234.913535     -6392.3223
   1   1.0000     -27.200706      -740.1688
   2   1.0000     -23.218633      -631.8111
   3   1.0000     -23.213517      -631.6719
   4   1.0000     -23.213517      -631.6719
   5   1.0000     -18.927701      -515.0489
   6   1.0000      -3.058630       -83.2295
   7   1.0000      -1.920211       -52.2516
   8   1.0000      -1.897411       -51.6312
   9   1.0000      -1.897411       -51.6312
  10   1.0000      -0.837685       -22.7946
  11   1.0000      -0.306506        -8.3404
  12   1.0000      -0.263319        -7.1653
  13   1.0000      -0.263319        -7.1653
  14   0.0000      -0.096475        -2.6252
  15   0.0000      -0.095534        -2.5996
  16   0.0000      -0.095528        -2.5994
  17   0.0000      -0.069411        -1.8888
  18   0.0000      -0.069411        -1.8888

MULLIKEN ATOMIC CHARGES AND SPIN POPULATIONS
--------------------------------------------
   0 Mn:    0.603250    4.911957
   1 O :   -0.603250    0.088043
Sum of atomic charges         :   -0.0000000

LOEWDIN ATOMIC CHARGES AND SPIN POPULATIONS
-------------------------------------------
   0 Mn:    0.622557    4.782318
   1 O :   -0.622557    0.217682

  Mayer bond orders larger than 0.100000
B(  0-Mn,  1-O ) :   2.0314

Dispersion correction           -0.000097278
FINAL SINGLE POINT ENERGY     -1226.364659999402

DIPOLE MOMENT
-------------
                                X             Y             Z
Electronic contribution:     -0.00000       0.00000      -3.46424
Nuclear contribution   :      0.00000       0.00000       1.71606
                        -----------------------------------------
Total Dipole Moment    :     -0.00000       0.00000      -1.74818
                        -----------------------------------------
Magnitude (a.u.)       :      1.74818
Magnitude (Debye)      :      4.44351

Rotational constants in cm-1:     0.000000     0.512677     0.512677
Rotational constants in MHz :     0.000000 15369.677147 15369.677147

                             ****ORCA TERMINATED NORMALLY****
TOTAL RUN TIME: 0 days 0 hours 0 minutes 7 seconds 414 msec
