                         Program Version 4.2.0 -  RELEASE  -
|  1> #
|  2> # 32_FeF scanfunc/aug-cc-pvtz
|  3> #
|  4> ! scanfunc d3bj aug-cc-pvtz def2/j grid4 nofinalgrid
|  5>
|  6> *xyz 0 6
|  7>   Fe  0.00000000000000      0.00000000000000      0.10964273788681
|  8>   F   0.00000000000000      0.00000000000000      1.89035726211319
|  9> *
| 10>
| 11> %pal
| 12> nprocs 24
| 13> end
| 14>
| 15>
| 16>                          ****END OF INPUT****

CARTESIAN COORDINATES (ANGSTROEM)
---------------------------------
  Fe     0.000000    0.000000    0.109643
  F      0.000000    0.000000    1.890357

 Total Charge           Charge          ....    0
 Multiplicity           Mult            ....    6
 Number of Electrons    NEL             ....   35
 Basis Dimension        Dim             ....  139

ORBITAL ENERGIES
----------------
                 SPIN UP ORBITALS
  NO   OCC          E(Eh)            E(eV)
   0   1.0000    -255.629079     -6956.0209
   1   1.0000     -29.937107      -814.6301
   2   1.0000     -25.777608      -701.4444
   3   1.0000     -25.754089      -700.8044
   4   1.0000     -25.754089      -700.8044
   5   1.0000     -24.465775      -665.7476
   6   1.0000      -3.544913       -96.4620
   7   1.0000      -2.347352       -63.8747
   8   1.0000      -2.292501       -62.3821
   9   1.0000      -2.292501       -62.3821
  10   1.0000      -1.083434       -29.4817
  11   1.0000      -0.424090       -11.5401
  12   1.0000      -0.388487       -10.5713
  13   1.0000      -0.388487       -10.5713
  14   1.0000      -0.343639        -9.3509
  15   1.0000      -0.310707        -8.4548
  16   1.0000      -0.310707        -8.4548
  17   1.0000      -0.309121        -8.4116
  18   1.0000      -0.298130        -8.1125
  19   1.0000      -0.193313        -5.2603
  20   0.0000      -0.047086        -1.2813
  21   0.0000      -0.047085        -1.2813
  22   0.0000       0.008722         0.2373
  23   0.0000       0.034432         0.9369
  24   0.0000       0.043719         1.1897

                 SPIN DOWN ORBITALS
  NO   OCC          E(Eh)            E(eV)
   0   1.0000    -255.619655     -6955.7644
   1   1.0000     -29.911525      -813.9340
   2   1.0000     -25.730284      -700.1566
   3   1.0000     -25.719546      -699.8644
   4   1.0000     -25.719546      -699.8644
   5   1.0000     -24.456508      -665.4954
   6   1.0000      -3.340678       -90.9045
   7   1.0000      -2.118477       -57.6467
   8   1.0000      -2.103072       -57.2275
   9   1.0000      -2.103072       -57.2275
  10   1.0000      -1.061922       -28.8964
  11   1.0000      -0.374746       -10.1973
  12   1.0000      -0.338742        -9.2176
  13   1.0000      -0.338742        -9.2176
  14   1.0000      -0.221178        -6.0186
  15   0.0000      -0.148626        -4.0443
  16   0.0000      -0.133998        -3.6463
  17   0.0000      -0.133998        -3.6463
  18   0.0000      -0.093591        -2.5467
  19   0.0000      -0.066954        -1.8219

MULLIKEN ATOMIC CHARGES AND SPIN POPULATIONS
--------------------------------------------
   0 Fe:    0.574936    4.821146
   1 F :   -0.574936    0.178854
Sum of atomic charges         :   -0.0000000

LOEWDIN ATOMIC CHARGES AND SPIN POPULATIONS
-------------------------------------------
   0 Fe:    0.409369    4.695635
   1 F :   -0.409369    0.304365

  Mayer bond orders larger than 0.100000
B(  0-Fe,  1-F ) :   0.7612

Dispersion correction           -0.000071038
FINAL SINGLE POINT ENERGY     -1363.704123965695

DIPOLE MOMENT
-------------
                                X             Y             Z
Electronic contribution:     -0.00000      -0.00000      -1.13378
Nuclear contribution   :      0.00000       0.00000       0.39123
                        -----------------------------------------
Total Dipole Moment    :     -0.00000      -0.00000      -0.74255
                        -----------------------------------------
Magnitude (a.u.)       :      0.74255
Magnitude (Debye)      :      1.88741

Rotational constants in cm-1:     0.000000     0.375023     0.375023
Rotational constants in MHz :     0.000000 11242.894653 11242.894653

                             ****ORCA TERMINATED NORMALLY****
TOTAL RUN TIME: 0 days 0 hours 0 minutes 6 seconds 228 msec
