                         Program Version 4.2.0 -  RELEASE  -
|  1> #
|  2> # 34_FeBr scanfunc/aug-cc-pvtz
|  3> #
|  4> ! scanfunc d3bj aug-cc-pvtz def2/j grid4 nofinalgrid
|  5>
|  6> *xyz 0 6
|  7>   Fe  0.00000000000000      0.00000000000000     -0.16252996889250
|  8>   Br  0.00000000000000      0.00000000000000      2.16252996889250
|  9> *
| 10>
| 11> %pal
| 12> nprocs 24
| 13> end
| 14>
| 15>
| 16>                          ****END OF INPUT****

CARTESIAN COORDINATES (ANGSTROEM)
---------------------------------
  Fe     0.000000    0.000000   -0.162530
  Br     0.000000    0.000000    2.162530

 Total Charge           Charge          ....    0
 Multiplicity           Mult            ....    6
 Number of Electrons    NEL             ....   61
 Basis Dimension        Dim             ....  152

ORBITAL ENERGIES
----------------
                 SPIN UP ORBITALS
  NO   OCC          E(Eh)            E(eV)
   0   1.0000    -482.258746    -13122.9276
   1   1.0000    -255.642032     -6956.3733
   2   1.0000     -62.299645     -1695.2595
   3   1.0000     -56.101326     -1526.5947
   4   1.0000     -56.100376     -1526.5688
   5   1.0000     -56.100376     -1526.5688
   6   1.0000     -29.949685      -814.9724
   7   1.0000     -25.791442      -701.8208
   8   1.0000     -25.765663      -701.1193
   9   1.0000     -25.765663      -701.1193
  10   1.0000      -8.646691      -235.2884
  11   1.0000      -6.433901      -175.0753
  12   1.0000      -6.431748      -175.0168
  13   1.0000      -6.431748      -175.0168
  14   1.0000      -3.554607       -96.7258
  15   1.0000      -2.513506       -68.3960
  16   1.0000      -2.512729       -68.3748
  17   1.0000      -2.512729       -68.3748
  18   1.0000      -2.510902       -68.3251
  19   1.0000      -2.510852       -68.3238
  20   1.0000      -2.357123       -64.1406
  21   1.0000      -2.302089       -62.6430
  22   1.0000      -2.302089       -62.6430
  23   1.0000      -0.722671       -19.6649
  24   1.0000      -0.387988       -10.5577
  25   1.0000      -0.371746       -10.1157
  26   1.0000      -0.371746       -10.1157
  27   1.0000      -0.352693        -9.5973
  28   1.0000      -0.310405        -8.4466
  29   1.0000      -0.306995        -8.3538
  30   1.0000      -0.272485        -7.4147
  31   1.0000      -0.272485        -7.4147
  32   1.0000      -0.191189        -5.2025
  33   0.0000      -0.055538        -1.5113
  34   0.0000      -0.055538        -1.5113
  35   0.0000       0.004409         0.1200
  36   0.0000       0.026351         0.7170
  37   0.0000       0.036234         0.9860

                 SPIN DOWN ORBITALS
  NO   OCC          E(Eh)            E(eV)
   0   1.0000    -482.257881    -13122.9041
   1   1.0000    -255.632835     -6956.1231
   2   1.0000     -62.297652     -1695.2053
   3   1.0000     -56.099086     -1526.5337
   4   1.0000     -56.098701     -1526.5233
   5   1.0000     -56.098701     -1526.5233
   6   1.0000     -29.924236      -814.2799
   7   1.0000     -25.743870      -700.5263
   8   1.0000     -25.731773      -700.1971
   9   1.0000     -25.731773      -700.1971
  10   1.0000      -8.645212      -235.2482
  11   1.0000      -6.432391      -175.0343
  12   1.0000      -6.430478      -174.9822
  13   1.0000      -6.430478      -174.9822
  14   1.0000      -3.353263       -91.2469
  15   1.0000      -2.512154       -68.3592
  16   1.0000      -2.511487       -68.3410
  17   1.0000      -2.511487       -68.3410
  18   1.0000      -2.509842       -68.2963
  19   1.0000      -2.509792       -68.2949
  20   1.0000      -2.132827       -58.0372
  21   1.0000      -2.113861       -57.5211
  22   1.0000      -2.113861       -57.5211
  23   1.0000      -0.709010       -19.2931
  24   1.0000      -0.323217        -8.7952
  25   1.0000      -0.275898        -7.5076
  26   1.0000      -0.275898        -7.5076
  27   1.0000      -0.230303        -6.2669
  28   0.0000      -0.168908        -4.5962
  29   0.0000      -0.155795        -4.2394
  30   0.0000      -0.155795        -4.2394
  31   0.0000      -0.104861        -2.8534
  32   0.0000      -0.078713        -2.1419

MULLIKEN ATOMIC CHARGES AND SPIN POPULATIONS
--------------------------------------------
   0 Fe:    0.350946    4.781442
   1 Br:   -0.350946    0.218558
Sum of atomic charges         :   -0.0000000

LOEWDIN ATOMIC CHARGES AND SPIN POPULATIONS
-------------------------------------------
   0 Fe:   -0.025052    4.649151
   1 Br:    0.025052    0.350849

  Mayer bond orders larger than 0.100000
B(  0-Fe,  1-Br) :   1.1154

Dispersion correction           -0.000174831
FINAL SINGLE POINT ENERGY     -3838.370293585506

DIPOLE MOMENT
-------------
                                X             Y             Z
Electronic contribution:      0.00000      -0.00000       3.21052
Nuclear contribution   :      0.00000       0.00000      -3.96973
                        -----------------------------------------
Total Dipole Moment    :      0.00000      -0.00000      -0.75920
                        -----------------------------------------
Magnitude (a.u.)       :      0.75920
Magnitude (Debye)      :      1.92974

Rotational constants in cm-1:     0.000000     0.094863     0.094863
Rotational constants in MHz :     0.000000  2843.931812  2843.931812

                             ****ORCA TERMINATED NORMALLY****
TOTAL RUN TIME: 0 days 0 hours 0 minutes 9 seconds 643 msec
