                         Program Version 4.2.0 -  RELEASE  -
|  1> #
|  2> # 37_CoH scanfunc/aug-cc-pvtz
|  3> #
|  4> ! scanfunc d3bj aug-cc-pvtz def2/j grid4 nofinalgrid
|  5>
|  6> *xyz 0 3
|  7>   Co  0.00000000000000      0.00000000000000      0.23964953556340
|  8>   H   0.00000000000000      0.00000000000000      1.76035046443660
|  9> *
| 10>
| 11> %pal
| 12> nprocs 24
| 13> end
| 14>
| 15>
| 16>                          ****END OF INPUT****

CARTESIAN COORDINATES (ANGSTROEM)
---------------------------------
  Co     0.000000    0.000000    0.239650
  H      0.000000    0.000000    1.760350

 Total Charge           Charge          ....    0
 Multiplicity           Mult            ....    3
 Number of Electrons    NEL             ....   28
 Basis Dimension        Dim             ....  116

ORBITAL ENERGIES
----------------
                 SPIN UP ORBITALS
  NO   OCC          E(Eh)            E(eV)
   0   1.0000    -277.006175     -7537.7212
   1   1.0000     -32.532950      -885.2666
   2   1.0000     -28.199773      -767.3548
   3   1.0000     -28.199772      -767.3548
   4   1.0000     -28.199526      -767.3481
   5   1.0000      -3.661779       -99.6421
   6   1.0000      -2.339150       -63.6515
   7   1.0000      -2.332563       -63.4723
   8   1.0000      -2.332559       -63.4722
   9   1.0000      -0.278314        -7.5733
  10   1.0000      -0.227433        -6.1888
  11   1.0000      -0.202279        -5.5043
  12   1.0000      -0.184071        -5.0088
  13   1.0000      -0.184070        -5.0088
  14   1.0000      -0.166849        -4.5402
  15   0.0000      -0.091223        -2.4823
  16   0.0000      -0.027503        -0.7484
  17   0.0000      -0.027502        -0.7484
  18   0.0000       0.018948         0.5156
  19   0.0000       0.028266         0.7692

                 SPIN DOWN ORBITALS
  NO   OCC          E(Eh)            E(eV)
   0   1.0000    -277.002623     -7537.6246
   1   1.0000     -32.489713      -884.0900
   2   1.0000     -28.172225      -766.6052
   3   1.0000     -28.167381      -766.4734
   4   1.0000     -28.167380      -766.4734
   5   1.0000      -3.556849       -96.7868
   6   1.0000      -2.238103       -60.9019
   7   1.0000      -2.236598       -60.8609
   8   1.0000      -2.236596       -60.8609
   9   1.0000      -0.265662        -7.2290
  10   1.0000      -0.158193        -4.3047
  11   1.0000      -0.158192        -4.3046
  12   1.0000      -0.156281        -4.2526
  13   0.0000      -0.089960        -2.4479
  14   0.0000      -0.044787        -1.2187
  15   0.0000      -0.039839        -1.0841
  16   0.0000      -0.001653        -0.0450
  17   0.0000      -0.001653        -0.0450

MULLIKEN ATOMIC CHARGES AND SPIN POPULATIONS
--------------------------------------------
   0 Co:    0.042821    2.138813
   1 H :   -0.042821   -0.138813
Sum of atomic charges         :   -0.0000000

LOEWDIN ATOMIC CHARGES AND SPIN POPULATIONS
-------------------------------------------
   0 Co:    0.604813    2.009854
   1 H :   -0.604813   -0.009854

  Mayer bond orders larger than 0.100000
B(  0-Co,  1-H ) :   1.0597

Dispersion correction           -0.000073139
FINAL SINGLE POINT ENERGY     -1383.465524610528

DIPOLE MOMENT
-------------
                                X             Y             Z
Electronic contribution:      0.00000      -0.00000      -2.51571
Nuclear contribution   :      0.00000       0.00000       1.52052
                        -----------------------------------------
Total Dipole Moment    :      0.00000      -0.00000      -0.99519
                        -----------------------------------------
Magnitude (a.u.)       :      0.99519
Magnitude (Debye)      :      2.52957

Rotational constants in cm-1:     0.000000     7.355540     7.355540
Rotational constants in MHz :     0.000000 220513.537195 220513.537195

                             ****ORCA TERMINATED NORMALLY****
TOTAL RUN TIME: 0 days 0 hours 0 minutes 6 seconds 796 msec
