                         Program Version 4.2.0 -  RELEASE  -
|  1> #
|  2> # 38_CoF scanfunc/aug-cc-pvtz
|  3> #
|  4> ! scanfunc d3bj aug-cc-pvtz def2/j grid4 nofinalgrid
|  5>
|  6> *xyz 0 3
|  7>   Co  0.00000000000000      0.00000000000000      0.12338928235446
|  8>   F   0.00000000000000      0.00000000000000      1.87661071764554
|  9> *
| 10>
| 11> %pal
| 12> nprocs 24
| 13> end
| 14>
| 15>
| 16>                          ****END OF INPUT****

CARTESIAN COORDINATES (ANGSTROEM)
---------------------------------
  Co     0.000000    0.000000    0.123389
  F      0.000000    0.000000    1.876611

 Total Charge           Charge          ....    0
 Multiplicity           Mult            ....    3
 Number of Electrons    NEL             ....   36
 Basis Dimension        Dim             ....  139

ORBITAL ENERGIES
----------------
                 SPIN UP ORBITALS
  NO   OCC          E(Eh)            E(eV)
   0   1.0000    -277.072163     -7539.5169
   1   1.0000     -32.601138      -887.1221
   2   1.0000     -28.271560      -769.3083
   3   1.0000     -28.268503      -769.2251
   4   1.0000     -28.265994      -769.1568
   5   1.0000     -24.439226      -665.0251
   6   1.0000      -3.726774      -101.4107
   7   1.0000      -2.404752       -65.4366
   8   1.0000      -2.397374       -65.2359
   9   1.0000      -2.395970       -65.1977
  10   1.0000      -1.047629       -28.5074
  11   1.0000      -0.360138        -9.7998
  12   1.0000      -0.352902        -9.6029
  13   1.0000      -0.331156        -9.0112
  14   1.0000      -0.277237        -7.5440
  15   1.0000      -0.273458        -7.4412
  16   1.0000      -0.228440        -6.2162
  17   1.0000      -0.222717        -6.0604
  18   1.0000      -0.204723        -5.5708
  19   0.0000      -0.136914        -3.7256
  20   0.0000      -0.028635        -0.7792
  21   0.0000      -0.028106        -0.7648
  22   0.0000       0.018389         0.5004
  23   0.0000       0.022979         0.6253

                 SPIN DOWN ORBITALS
  NO   OCC          E(Eh)            E(eV)
   0   1.0000    -277.068409     -7539.4147
   1   1.0000     -32.563209      -886.0900
   2   1.0000     -28.245446      -768.5977
   3   1.0000     -28.244279      -768.5659
   4   1.0000     -28.234371      -768.2963
   5   1.0000     -24.441066      -665.0752
   6   1.0000      -3.630394       -98.7880
   7   1.0000      -2.325713       -63.2859
   8   1.0000      -2.307285       -62.7844
   9   1.0000      -2.298287       -62.5396
  10   1.0000      -1.047866       -28.5139
  11   1.0000      -0.372449       -10.1348
  12   1.0000      -0.330077        -8.9819
  13   1.0000      -0.314502        -8.5580
  14   1.0000      -0.218660        -5.9500
  15   1.0000      -0.216519        -5.8918
  16   1.0000      -0.201965        -5.4957
  17   0.0000      -0.120587        -3.2813
  18   0.0000      -0.093996        -2.5578
  19   0.0000      -0.093347        -2.5401
  20   0.0000      -0.002281        -0.0621
  21   0.0000      -0.002135        -0.0581

MULLIKEN ATOMIC CHARGES AND SPIN POPULATIONS
--------------------------------------------
   0 Co:    0.596283    2.048007
   1 F :   -0.596283   -0.048007
Sum of atomic charges         :   -0.0000000

LOEWDIN ATOMIC CHARGES AND SPIN POPULATIONS
-------------------------------------------
   0 Co:    0.424537    1.961179
   1 F :   -0.424537    0.038821

  Mayer bond orders larger than 0.100000
B(  0-Co,  1-F ) :   0.7793

Dispersion correction           -0.000073080
FINAL SINGLE POINT ENERGY     -1482.782732822723

DIPOLE MOMENT
-------------
                                X             Y             Z
Electronic contribution:      0.00000       0.00000      -2.34562
Nuclear contribution   :      0.00000       0.00000       0.74078
                        -----------------------------------------
Total Dipole Moment    :      0.00000       0.00000      -1.60484
                        -----------------------------------------
Magnitude (a.u.)       :      1.60484
Magnitude (Debye)      :      4.07919

Rotational constants in cm-1:     0.000000     0.381744     0.381744
Rotational constants in MHz :     0.000000 11444.406260 11444.406260

                             ****ORCA TERMINATED NORMALLY****
TOTAL RUN TIME: 0 days 0 hours 0 minutes 10 seconds 813 msec
