                         Program Version 4.2.0 -  RELEASE  -
|  1> #
|  2> # 41_CoO scanfunc/aug-cc-pvtz
|  3> #
|  4> ! scanfunc d3bj aug-cc-pvtz def2/j grid4 nofinalgrid
|  5>
|  6> *xyz 0 4
|  7>   Co  0.00000000000000      0.00000000000000      0.18722579130779
|  8>   O   0.00000000000000      0.00000000000000      1.81277420869221
|  9> *
| 10>
| 11> %pal
| 12> nprocs 24
| 13> end
| 14>
| 15>
| 16>                          ****END OF INPUT****

CARTESIAN COORDINATES (ANGSTROEM)
---------------------------------
  Co     0.000000    0.000000    0.187226
  O      0.000000    0.000000    1.812774

 Total Charge           Charge          ....    0
 Multiplicity           Mult            ....    4
 Number of Electrons    NEL             ....   35
 Basis Dimension        Dim             ....  139

ORBITAL ENERGIES
----------------
                 SPIN UP ORBITALS
  NO   OCC          E(Eh)            E(eV)
   0   1.0000    -277.130935     -7541.1161
   1   1.0000     -32.685023      -889.4047
   2   1.0000     -28.350641      -771.4602
   3   1.0000     -28.350641      -771.4602
   4   1.0000     -28.344206      -771.2850
   5   1.0000     -18.963745      -516.0297
   6   1.0000      -3.810373      -103.6855
   7   1.0000      -2.480951       -67.5101
   8   1.0000      -2.480951       -67.5101
   9   1.0000      -2.478386       -67.4403
  10   1.0000      -0.883781       -24.0489
  11   1.0000      -0.375678       -10.2227
  12   1.0000      -0.375678       -10.2227
  13   1.0000      -0.357786        -9.7358
  14   1.0000      -0.344572        -9.3763
  15   1.0000      -0.282496        -7.6871
  16   1.0000      -0.256845        -6.9891
  17   1.0000      -0.256845        -6.9891
  18   1.0000      -0.229115        -6.2345
  19   0.0000      -0.142701        -3.8831
  20   0.0000      -0.021754        -0.5920
  21   0.0000      -0.021754        -0.5920
  22   0.0000       0.015747         0.4285
  23   0.0000       0.023063         0.6276

                 SPIN DOWN ORBITALS
  NO   OCC          E(Eh)            E(eV)
   0   1.0000    -277.126101     -7540.9846
   1   1.0000     -32.626806      -887.8205
   2   1.0000     -28.309359      -770.3368
   3   1.0000     -28.309359      -770.3368
   4   1.0000     -28.303185      -770.1688
   5   1.0000     -18.962563      -515.9976
   6   1.0000      -3.665993       -99.7568
   7   1.0000      -2.368573       -64.4521
   8   1.0000      -2.334584       -63.5273
   9   1.0000      -2.334584       -63.5273
  10   1.0000      -0.835118       -22.7247
  11   1.0000      -0.342583        -9.3222
  12   1.0000      -0.272658        -7.4194
  13   1.0000      -0.272000        -7.4015
  14   1.0000      -0.271999        -7.4015
  15   1.0000      -0.205340        -5.5876
  16   0.0000      -0.143291        -3.8991
  17   0.0000      -0.138999        -3.7823
  18   0.0000      -0.138998        -3.7823
  19   0.0000      -0.111743        -3.0407
  20   0.0000      -0.000954        -0.0260

MULLIKEN ATOMIC CHARGES AND SPIN POPULATIONS
--------------------------------------------
   0 Co:    0.534823    2.323723
   1 O :   -0.534823    0.676277
Sum of atomic charges         :   -0.0000000

LOEWDIN ATOMIC CHARGES AND SPIN POPULATIONS
-------------------------------------------
   0 Co:    0.555431    2.369754
   1 O :   -0.555431    0.630246

  Mayer bond orders larger than 0.100000
B(  0-Co,  1-O ) :   2.0643

Dispersion correction           -0.000095770
FINAL SINGLE POINT ENERGY     -1458.092291142088

DIPOLE MOMENT
-------------
                                X             Y             Z
Electronic contribution:     -0.00000      -0.00000      -3.31677
Nuclear contribution   :      0.00000       0.00000       1.61802
                        -----------------------------------------
Total Dipole Moment    :     -0.00000      -0.00000      -1.69875
                        -----------------------------------------
Magnitude (a.u.)       :      1.69875
Magnitude (Debye)      :      4.31788

Rotational constants in cm-1:     0.000000     0.507011     0.507011
Rotational constants in MHz :     0.000000 15199.819890 15199.819890

                             ****ORCA TERMINATED NORMALLY****
TOTAL RUN TIME: 0 days 0 hours 0 minutes 13 seconds 951 msec
