                         Program Version 4.2.0 -  RELEASE  -
|  1> #
|  2> # 42_CoS scanfunc/aug-cc-pvtz
|  3> #
|  4> ! scanfunc d3bj aug-cc-pvtz def2/j grid4 nofinalgrid
|  5>
|  6> *xyz 0 4
|  7>   Co  0.00000000000000      0.00000000000000      0.00920129654260
|  8>   S   0.00000000000000      0.00000000000000      1.99079870345740
|  9> *
| 10>
| 11> %pal
| 12> nprocs 24
| 13> end
| 14>
| 15>
| 16>                          ****END OF INPUT****

CARTESIAN COORDINATES (ANGSTROEM)
---------------------------------
  Co     0.000000    0.000000    0.009201
  S      0.000000    0.000000    1.990799

 Total Charge           Charge          ....    0
 Multiplicity           Mult            ....    4
 Number of Electrons    NEL             ....   43
 Basis Dimension        Dim             ....  143

ORBITAL ENERGIES
----------------
                 SPIN UP ORBITALS
  NO   OCC          E(Eh)            E(eV)
   0   1.0000    -277.112980     -7540.6275
   1   1.0000     -88.642878     -2412.0954
   2   1.0000     -32.659315      -888.7051
   3   1.0000     -28.327694      -770.8358
   4   1.0000     -28.322111      -770.6838
   5   1.0000     -28.319279      -770.6068
   6   1.0000      -7.849734      -213.6021
   7   1.0000      -5.790290      -157.5618
   8   1.0000      -5.784464      -157.4033
   9   1.0000      -5.783205      -157.3690
  10   1.0000      -3.790472      -103.1440
  11   1.0000      -2.467974       -67.1570
  12   1.0000      -2.459120       -66.9161
  13   1.0000      -2.454301       -66.7849
  14   1.0000      -0.627006       -17.0617
  15   1.0000      -0.343950        -9.3594
  16   1.0000      -0.334702        -9.1077
  17   1.0000      -0.333849        -9.0845
  18   1.0000      -0.312121        -8.4932
  19   1.0000      -0.268751        -7.3131
  20   1.0000      -0.237614        -6.4658
  21   1.0000      -0.225433        -6.1343
  22   1.0000      -0.216314        -5.8862
  23   0.0000      -0.137405        -3.7390
  24   0.0000      -0.026450        -0.7198
  25   0.0000      -0.022092        -0.6012
  26   0.0000       0.013498         0.3673
  27   0.0000       0.019382         0.5274

                 SPIN DOWN ORBITALS
  NO   OCC          E(Eh)            E(eV)
   0   1.0000    -277.108132     -7540.4956
   1   1.0000     -88.639203     -2411.9953
   2   1.0000     -32.602483      -887.1587
   3   1.0000     -28.284939      -769.6723
   4   1.0000     -28.284292      -769.6547
   5   1.0000     -28.279137      -769.5144
   6   1.0000      -7.841933      -213.3898
   7   1.0000      -5.783201      -157.3689
   8   1.0000      -5.777668      -157.2183
   9   1.0000      -5.776250      -157.1798
  10   1.0000      -3.643147       -99.1351
  11   1.0000      -2.341429       -63.7135
  12   1.0000      -2.317679       -63.0672
  13   1.0000      -2.314263       -62.9743
  14   1.0000      -0.611597       -16.6424
  15   1.0000      -0.304194        -8.2775
  16   1.0000      -0.253317        -6.8931
  17   1.0000      -0.248662        -6.7664
  18   1.0000      -0.236918        -6.4469
  19   1.0000      -0.215115        -5.8536
  20   0.0000      -0.156319        -4.2537
  21   0.0000      -0.131121        -3.5680
  22   0.0000      -0.124266        -3.3814
  23   0.0000      -0.105356        -2.8669
  24   0.0000      -0.005830        -0.1586

MULLIKEN ATOMIC CHARGES AND SPIN POPULATIONS
--------------------------------------------
   0 Co:    0.259917    2.452427
   1 S :   -0.259917    0.547573
Sum of atomic charges         :   -0.0000000

LOEWDIN ATOMIC CHARGES AND SPIN POPULATIONS
-------------------------------------------
   0 Co:    0.043546    2.437546
   1 S :   -0.043546    0.562454

  Mayer bond orders larger than 0.100000
B(  0-Co,  1-S ) :   2.3602

Dispersion correction           -0.000189628
FINAL SINGLE POINT ENERGY     -1781.190194081545

DIPOLE MOMENT
-------------
                                X             Y             Z
Electronic contribution:     -0.00000      -0.00000      -4.91622
Nuclear contribution   :      0.00000       0.00000       3.17962
                        -----------------------------------------
Total Dipole Moment    :     -0.00000      -0.00000      -1.73660
                        -----------------------------------------
Magnitude (a.u.)       :      1.73660
Magnitude (Debye)      :      4.41409

Rotational constants in cm-1:     0.000000     0.206757     0.206757
Rotational constants in MHz :     0.000000  6198.412278  6198.412278

                             ****ORCA TERMINATED NORMALLY****
TOTAL RUN TIME: 0 days 0 hours 0 minutes 16 seconds 815 msec
