                         Program Version 4.2.0 -  RELEASE  -
|  1> #
|  2> # 44_NiF scanfunc/aug-cc-pvtz
|  3> #
|  4> ! scanfunc d3bj aug-cc-pvtz def2/j grid4 nofinalgrid
|  5>
|  6> *xyz 0 2
|  7>   Ni  0.00000000000000      0.00000000000000      0.12374716283349
|  8>   F   0.00000000000000      0.00000000000000      1.87625283716651
|  9> *
| 10>
| 11> %pal
| 12> nprocs 24
| 13> end
| 14>
| 15>
| 16>                          ****END OF INPUT****

CARTESIAN COORDINATES (ANGSTROEM)
---------------------------------
  Ni     0.000000    0.000000    0.123747
  F      0.000000    0.000000    1.876253

 Total Charge           Charge          ....    0
 Multiplicity           Mult            ....    2
 Number of Electrons    NEL             ....   37
 Basis Dimension        Dim             ....  139

ORBITAL ENERGIES
----------------
                 SPIN UP ORBITALS
  NO   OCC          E(Eh)            E(eV)
   0   1.0000    -299.222315     -8142.2531
   1   1.0000     -35.546443      -967.2679
   2   1.0000     -30.938796      -841.8874
   3   1.0000     -30.920474      -841.3889
   4   1.0000     -30.920169      -841.3806
   5   1.0000     -24.416459      -664.4056
   6   1.0000      -3.940474      -107.2258
   7   1.0000      -2.564939       -69.7956
   8   1.0000      -2.495912       -67.9172
   9   1.0000      -2.495081       -67.8946
  10   1.0000      -1.024841       -27.8873
  11   1.0000      -0.350627        -9.5411
  12   1.0000      -0.307559        -8.3691
  13   1.0000      -0.307480        -8.3669
  14   1.0000      -0.230793        -6.2802
  15   1.0000      -0.194285        -5.2868
  16   1.0000      -0.194010        -5.2793
  17   1.0000      -0.191515        -5.2114
  18   1.0000      -0.191498        -5.2109
  19   0.0000      -0.132630        -3.6090
  20   0.0000      -0.012340        -0.3358
  21   0.0000      -0.012117        -0.3297
  22   0.0000       0.014332         0.3900
  23   0.0000       0.024060         0.6547

                 SPIN DOWN ORBITALS
  NO   OCC          E(Eh)            E(eV)
   0   1.0000    -299.220707     -8142.2094
   1   1.0000     -35.544076      -967.2035
   2   1.0000     -30.932992      -841.7295
   3   1.0000     -30.911607      -841.1476
   4   1.0000     -30.911311      -841.1395
   5   1.0000     -24.417339      -664.4296
   6   1.0000      -3.898036      -106.0710
   7   1.0000      -2.478513       -67.4438
   8   1.0000      -2.477927       -67.4278
   9   1.0000      -2.474529       -67.3354
  10   1.0000      -1.026596       -27.9351
  11   1.0000      -0.337472        -9.1831
  12   1.0000      -0.308540        -8.3958
  13   1.0000      -0.308380        -8.3915
  14   1.0000      -0.198689        -5.4066
  15   1.0000      -0.197883        -5.3847
  16   1.0000      -0.159841        -4.3495
  17   1.0000      -0.159832        -4.3492
  18   0.0000      -0.133301        -3.6273
  19   0.0000      -0.087005        -2.3675
  20   0.0000      -0.002343        -0.0637
  21   0.0000      -0.002093        -0.0569
  22   0.0000       0.017122         0.4659

MULLIKEN ATOMIC CHARGES AND SPIN POPULATIONS
--------------------------------------------
   0 Ni:    0.630564    0.995255
   1 F :   -0.630564    0.004745
Sum of atomic charges         :    0.0000000

LOEWDIN ATOMIC CHARGES AND SPIN POPULATIONS
-------------------------------------------
   0 Ni:    0.443077    0.980454
   1 F :   -0.443077    0.019546

  Mayer bond orders larger than 0.100000
B(  0-Ni,  1-F ) :   0.6874

Dispersion correction           -0.000076662
FINAL SINGLE POINT ENERGY     -1608.306553626551

DIPOLE MOMENT
-------------
                                X             Y             Z
Electronic contribution:      0.00000      -0.00000      -1.66404
Nuclear contribution   :      0.00000       0.00000      -0.15532
                        -----------------------------------------
Total Dipole Moment    :      0.00000      -0.00000      -1.81936
                        -----------------------------------------
Magnitude (a.u.)       :      1.81936
Magnitude (Debye)      :      4.62445

Rotational constants in cm-1:     0.000000     0.382421     0.382421
Rotational constants in MHz :     0.000000 11464.697327 11464.697327

                             ****ORCA TERMINATED NORMALLY****
TOTAL RUN TIME: 0 days 0 hours 0 minutes 7 seconds 16 msec
