                         Program Version 4.2.0 -  RELEASE  -
|  1> #
|  2> # 45_NiCl scanfunc/aug-cc-pvtz
|  3> #
|  4> ! scanfunc d3bj aug-cc-pvtz def2/j grid4 nofinalgrid
|  5>
|  6> *xyz 0 2
|  7>   Ni  0.00000000000000      0.00000000000000     -0.04672403924217
|  8>   Cl  0.00000000000000      0.00000000000000      2.04672403924217
|  9> *
| 10>
| 11> %pal
| 12> nprocs 24
| 13> end
| 14>
| 15>
| 16>                          ****END OF INPUT****

CARTESIAN COORDINATES (ANGSTROEM)
---------------------------------
  Ni     0.000000    0.000000   -0.046724
  Cl     0.000000    0.000000    2.046724

 Total Charge           Charge          ....    0
 Multiplicity           Mult            ....    2
 Number of Electrons    NEL             ....   45
 Basis Dimension        Dim             ....  143

ORBITAL ENERGIES
----------------
                 SPIN UP ORBITALS
  NO   OCC          E(Eh)            E(eV)
   0   1.0000    -299.264152     -8143.3916
   1   1.0000    -101.247994     -2755.0980
   2   1.0000     -35.591877      -968.5042
   3   1.0000     -30.983175      -843.0951
   4   1.0000     -30.977197      -842.9324
   5   1.0000     -30.959495      -842.4507
   6   1.0000      -9.300238      -253.0724
   7   1.0000      -7.057885      -192.0548
   8   1.0000      -7.055004      -191.9764
   9   1.0000      -7.053436      -191.9338
  10   1.0000      -3.992526      -108.6422
  11   1.0000      -2.594610       -70.6029
  12   1.0000      -2.583115       -70.2901
  13   1.0000      -2.532726       -68.9190
  14   1.0000      -0.737310       -20.0632
  15   1.0000      -0.339020        -9.2252
  16   1.0000      -0.324783        -8.8378
  17   1.0000      -0.288646        -7.8545
  18   1.0000      -0.258297        -7.0286
  19   1.0000      -0.244096        -6.6422
  20   1.0000      -0.236929        -6.4472
  21   1.0000      -0.229592        -6.2475
  22   1.0000      -0.222222        -6.0470
  23   0.0000      -0.134139        -3.6501
  24   0.0000      -0.017746        -0.4829
  25   0.0000      -0.008631        -0.2349
  26   0.0000       0.013795         0.3754
  27   0.0000       0.019998         0.5442

                 SPIN DOWN ORBITALS
  NO   OCC          E(Eh)            E(eV)
   0   1.0000    -299.262953     -8143.3590
   1   1.0000    -101.247439     -2755.0829
   2   1.0000     -35.589565      -968.4413
   3   1.0000     -30.966722      -842.6473
   4   1.0000     -30.961598      -842.5079
   5   1.0000     -30.961180      -842.4965
   6   1.0000      -9.301666      -253.1112
   7   1.0000      -7.058038      -192.0590
   8   1.0000      -7.054379      -191.9594
   9   1.0000      -7.053583      -191.9377
  10   1.0000      -3.925548      -106.8196
  11   1.0000      -2.510978       -68.3272
  12   1.0000      -2.505777       -68.1857
  13   1.0000      -2.500548       -68.0434
  14   1.0000      -0.733971       -19.9724
  15   1.0000      -0.338353        -9.2070
  16   1.0000      -0.283065        -7.7026
  17   1.0000      -0.276124        -7.5137
  18   1.0000      -0.251920        -6.8551
  19   1.0000      -0.211806        -5.7635
  20   1.0000      -0.208976        -5.6865
  21   1.0000      -0.184733        -5.0268
  22   0.0000      -0.130897        -3.5619
  23   0.0000      -0.129036        -3.5112
  24   0.0000      -0.020784        -0.5656
  25   0.0000      -0.011892        -0.3236
  26   0.0000       0.016401         0.4463

MULLIKEN ATOMIC CHARGES AND SPIN POPULATIONS
--------------------------------------------
   0 Ni:    0.464500    0.937841
   1 Cl:   -0.464500    0.062159
Sum of atomic charges         :   -0.0000000

LOEWDIN ATOMIC CHARGES AND SPIN POPULATIONS
-------------------------------------------
   0 Ni:    0.067191    0.935255
   1 Cl:   -0.067191    0.064745

  Mayer bond orders larger than 0.100000
B(  0-Ni,  1-Cl) :   1.1046

Dispersion correction           -0.000183395
FINAL SINGLE POINT ENERGY     -1968.699152338670

DIPOLE MOMENT
-------------
                                X             Y             Z
Electronic contribution:     -0.00000      -0.00000      -1.99131
Nuclear contribution   :      0.00000       0.00000       0.21916
                        -----------------------------------------
Total Dipole Moment    :     -0.00000      -0.00000      -1.77215
                        -----------------------------------------
Magnitude (a.u.)       :      1.77215
Magnitude (Debye)      :      4.50444

Rotational constants in cm-1:     0.000000     0.174027     0.174027
Rotational constants in MHz :     0.000000  5217.185595  5217.185595

                             ****ORCA TERMINATED NORMALLY****
TOTAL RUN TIME: 0 days 0 hours 0 minutes 9 seconds 309 msec
