                         Program Version 4.2.0 -  RELEASE  -
|  1> #
|  2> # 46_NiBr scanfunc/aug-cc-pvtz
|  3> #
|  4> ! scanfunc d3bj aug-cc-pvtz def2/j grid4 nofinalgrid
|  5>
|  6> *xyz 0 2
|  7>   Ni  0.00000000000000      0.00000000000000     -0.09144593844003
|  8>   Br  0.00000000000000      0.00000000000000      2.09144593844003
|  9> *
| 10>
| 11> %pal
| 12> nprocs 24
| 13> end
| 14>
| 15>
| 16>                          ****END OF INPUT****

CARTESIAN COORDINATES (ANGSTROEM)
---------------------------------
  Ni     0.000000    0.000000   -0.091446
  Br     0.000000    0.000000    2.091446

 Total Charge           Charge          ....    0
 Multiplicity           Mult            ....    2
 Number of Electrons    NEL             ....   63
 Basis Dimension        Dim             ....  152

ORBITAL ENERGIES
----------------
                 SPIN UP ORBITALS
  NO   OCC          E(Eh)            E(eV)
   0   1.0000    -482.245982    -13122.5803
   1   1.0000    -299.258232     -8143.2305
   2   1.0000     -62.286071     -1694.8902
   3   1.0000     -56.087692     -1526.2237
   4   1.0000     -56.087049     -1526.2062
   5   1.0000     -56.086789     -1526.1991
   6   1.0000     -35.585726      -968.3368
   7   1.0000     -30.977094      -842.9296
   8   1.0000     -30.971386      -842.7743
   9   1.0000     -30.952484      -842.2599
  10   1.0000      -8.633358      -234.9256
  11   1.0000      -6.422460      -174.7640
  12   1.0000      -6.418413      -174.6539
  13   1.0000      -6.416607      -174.6047
  14   1.0000      -3.984961      -108.4363
  15   1.0000      -2.587833       -70.4185
  16   1.0000      -2.576694       -70.1154
  17   1.0000      -2.523735       -68.6743
  18   1.0000      -2.501673       -68.0740
  19   1.0000      -2.500740       -68.0486
  20   1.0000      -2.499397       -68.0120
  21   1.0000      -2.496241       -67.9262
  22   1.0000      -2.496080       -67.9218
  23   1.0000      -0.703262       -19.1367
  24   1.0000      -0.326895        -8.8953
  25   1.0000      -0.316953        -8.6247
  26   1.0000      -0.276756        -7.5309
  27   1.0000      -0.248113        -6.7515
  28   1.0000      -0.239314        -6.5121
  29   1.0000      -0.230638        -6.2760
  30   1.0000      -0.223643        -6.0856
  31   1.0000      -0.215707        -5.8697
  32   0.0000      -0.130465        -3.5501
  33   0.0000      -0.018360        -0.4996
  34   0.0000      -0.009437        -0.2568
  35   0.0000       0.014150         0.3851
  36   0.0000       0.018776         0.5109

                 SPIN DOWN ORBITALS
  NO   OCC          E(Eh)            E(eV)
   0   1.0000    -482.245768    -13122.5745
   1   1.0000    -299.256989     -8143.1967
   2   1.0000     -62.285549     -1694.8760
   3   1.0000     -56.086903     -1526.2022
   4   1.0000     -56.086882     -1526.2016
   5   1.0000     -56.086286     -1526.1854
   6   1.0000     -35.583506      -968.2764
   7   1.0000     -30.961074      -842.4937
   8   1.0000     -30.956132      -842.3592
   9   1.0000     -30.954584      -842.3171
  10   1.0000      -8.633025      -234.9166
  11   1.0000      -6.422435      -174.7633
  12   1.0000      -6.417779      -174.6366
  13   1.0000      -6.416412      -174.5994
  14   1.0000      -3.921037      -106.6968
  15   1.0000      -2.509017       -68.2738
  16   1.0000      -2.501009       -68.0559
  17   1.0000      -2.500669       -68.0467
  18   1.0000      -2.500074       -68.0305
  19   1.0000      -2.499519       -68.0154
  20   1.0000      -2.495835       -67.9151
  21   1.0000      -2.495721       -67.9120
  22   1.0000      -2.495632       -67.9096
  23   1.0000      -0.699368       -19.0308
  24   1.0000      -0.327714        -8.9176
  25   1.0000      -0.271076        -7.3763
  26   1.0000      -0.262484        -7.1425
  27   1.0000      -0.248563        -6.7638
  28   1.0000      -0.206756        -5.6261
  29   1.0000      -0.203746        -5.5442
  30   1.0000      -0.181208        -4.9309
  31   0.0000      -0.129044        -3.5115
  32   0.0000      -0.123764        -3.3678
  33   0.0000      -0.019286        -0.5248
  34   0.0000      -0.010866        -0.2957
  35   0.0000       0.015834         0.4309

MULLIKEN ATOMIC CHARGES AND SPIN POPULATIONS
--------------------------------------------
   0 Ni:    0.413670    0.948896
   1 Br:   -0.413670    0.051104
Sum of atomic charges         :   -0.0000000

LOEWDIN ATOMIC CHARGES AND SPIN POPULATIONS
-------------------------------------------
   0 Ni:   -0.062925    0.932229
   1 Br:    0.062925    0.067771

  Mayer bond orders larger than 0.100000
B(  0-Ni,  1-Br) :   1.2395

Dispersion correction           -0.000190868
FINAL SINGLE POINT ENERGY     -4083.001633915607

DIPOLE MOMENT
-------------
                                X             Y             Z
Electronic contribution:     -0.00000       0.00000       3.78056
Nuclear contribution   :      0.00000       0.00000      -5.43759
                        -----------------------------------------
Total Dipole Moment    :     -0.00000       0.00000      -1.65703
                        -----------------------------------------
Magnitude (a.u.)       :      1.65703
Magnitude (Debye)      :      4.21184

Rotational constants in cm-1:     0.000000     0.104547     0.104547
Rotational constants in MHz :     0.000000  3134.234625  3134.234625

                             ****ORCA TERMINATED NORMALLY****
TOTAL RUN TIME: 0 days 0 hours 0 minutes 11 seconds 297 msec
