                         Program Version 4.2.0 -  RELEASE  -
|  1> #
|  2> # 51_CuCl scanfunc/aug-cc-pvtz
|  3> #
|  4> ! scanfunc d3bj aug-cc-pvtz def2/j grid4 nofinalgrid
|  5>
|  6> *xyz 0 1
|  7>   Cu  0.00000000000000      0.00000000000000     -0.03459121817691
|  8>   Cl  0.00000000000000      0.00000000000000      2.03459121817691
|  9> *
| 10>
| 11> %pal
| 12> nprocs 24
| 13> end
| 14>
| 15>
| 16>                          ****END OF INPUT****

CARTESIAN COORDINATES (ANGSTROEM)
---------------------------------
  Cu     0.000000    0.000000   -0.034591
  Cl     0.000000    0.000000    2.034591

 Total Charge           Charge          ....    0
 Multiplicity           Mult            ....    1
 Number of Electrons    NEL             ....   46
 Basis Dimension        Dim             ....  143

ORBITAL ENERGIES
----------------

  NO   OCC          E(Eh)            E(eV)
   0   2.0000    -322.517034     -8776.1347
   1   2.0000    -101.244985     -2755.0161
   2   2.0000     -38.566046     -1049.4355
   3   2.0000     -33.787688      -919.4097
   4   2.0000     -33.787688      -919.4097
   5   2.0000     -33.787339      -919.4002
   6   2.0000      -9.297988      -253.0111
   7   2.0000      -7.055786      -191.9977
   8   2.0000      -7.050723      -191.8599
   9   2.0000      -7.050723      -191.8599
  10   2.0000      -4.291595      -116.7802
  11   2.0000      -2.776611       -75.5554
  12   2.0000      -2.764458       -75.2247
  13   2.0000      -2.764458       -75.2247
  14   2.0000      -0.732367       -19.9287
  15   2.0000      -0.335269        -9.1231
  16   2.0000      -0.291825        -7.9410
  17   2.0000      -0.291825        -7.9410
  18   2.0000      -0.245060        -6.6684
  19   2.0000      -0.245049        -6.6681
  20   2.0000      -0.232242        -6.3196
  21   2.0000      -0.232242        -6.3196
  22   2.0000      -0.231792        -6.3074
  23   0.0000      -0.135323        -3.6823
  24   0.0000      -0.013740        -0.3739
  25   0.0000      -0.013740        -0.3739
  26   0.0000       0.015043         0.4093
  27   0.0000       0.021515         0.5855

MULLIKEN ATOMIC CHARGES
-----------------------
   0 Cu:    0.491726
   1 Cl:   -0.491726
Sum of atomic charges:   -0.0000000

LOEWDIN ATOMIC CHARGES
----------------------
   0 Cu:    0.031156
   1 Cl:   -0.031156

  Mayer bond orders larger than 0.100000
B(  0-Cu,  1-Cl) :   1.0488

Dispersion correction           -0.000160490
FINAL SINGLE POINT ENERGY     -2100.938277062072

DIPOLE MOMENT
-------------
                                X             Y             Z
Electronic contribution:      0.00000       0.00000      -3.89826
Nuclear contribution   :      0.00000       0.00000       2.06219
                        -----------------------------------------
Total Dipole Moment    :      0.00000       0.00000      -1.83607
                        -----------------------------------------
Magnitude (a.u.)       :      1.83607
Magnitude (Debye)      :      4.66692

Rotational constants in cm-1:     0.000000     0.173013     0.173013
Rotational constants in MHz :     0.000000  5186.804112  5186.804112

                             ****ORCA TERMINATED NORMALLY****
TOTAL RUN TIME: 0 days 0 hours 0 minutes 7 seconds 352 msec
