                         Program Version 4.2.0 -  RELEASE  -
|  1> #
|  2> # 52_CuBr scanfunc/aug-cc-pvtz
|  3> #
|  4> ! scanfunc d3bj aug-cc-pvtz def2/j grid4 nofinalgrid
|  5>
|  6> *xyz 0 1
|  7>   Cu  0.00000000000000      0.00000000000000     -0.09600479667781
|  8>   Br  0.00000000000000      0.00000000000000      2.09600479667781
|  9> *
| 10>
| 11> %pal
| 12> nprocs 24
| 13> end
| 14>
| 15>
| 16>                          ****END OF INPUT****

CARTESIAN COORDINATES (ANGSTROEM)
---------------------------------
  Cu     0.000000    0.000000   -0.096005
  Br     0.000000    0.000000    2.096005

 Total Charge           Charge          ....    0
 Multiplicity           Mult            ....    1
 Number of Electrons    NEL             ....   64
 Basis Dimension        Dim             ....  152

ORBITAL ENERGIES
----------------

  NO   OCC          E(Eh)            E(eV)
   0   2.0000    -482.242020    -13122.4725
   1   2.0000    -322.514966     -8776.0784
   2   2.0000     -62.281719     -1694.7717
   3   2.0000     -56.082951     -1526.0947
   4   2.0000     -56.082951     -1526.0947
   5   2.0000     -56.082630     -1526.0860
   6   2.0000     -38.563462     -1049.3652
   7   2.0000     -33.785137      -919.3403
   8   2.0000     -33.785137      -919.3403
   9   2.0000     -33.784730      -919.3292
  10   2.0000      -8.629012      -234.8074
  11   2.0000      -6.419399      -174.6807
  12   2.0000      -6.412535      -174.4940
  13   2.0000      -6.412535      -174.4940
  14   2.0000      -4.289256      -116.7166
  15   2.0000      -2.773716       -75.4766
  16   2.0000      -2.762475       -75.1708
  17   2.0000      -2.762475       -75.1708
  18   2.0000      -2.498181       -67.9790
  19   2.0000      -2.496229       -67.9258
  20   2.0000      -2.496229       -67.9258
  21   2.0000      -2.490986       -67.7832
  22   2.0000      -2.490930       -67.7816
  23   2.0000      -0.696738       -18.9592
  24   2.0000      -0.322516        -8.7761
  25   2.0000      -0.280375        -7.6294
  26   2.0000      -0.280375        -7.6294
  27   2.0000      -0.243560        -6.6276
  28   2.0000      -0.243538        -6.6270
  29   2.0000      -0.232548        -6.3279
  30   2.0000      -0.227233        -6.1833
  31   2.0000      -0.227233        -6.1833
  32   0.0000      -0.133828        -3.6416
  33   0.0000      -0.015363        -0.4180
  34   0.0000      -0.015363        -0.4180
  35   0.0000       0.014391         0.3916
  36   0.0000       0.019846         0.5400

MULLIKEN ATOMIC CHARGES
-----------------------
   0 Cu:    0.464567
   1 Br:   -0.464567
Sum of atomic charges:   -0.0000000

LOEWDIN ATOMIC CHARGES
----------------------
   0 Cu:   -0.077511
   1 Br:    0.077511

  Mayer bond orders larger than 0.100000
B(  0-Cu,  1-Br) :   1.0508

Dispersion correction           -0.000168434
FINAL SINGLE POINT ENERGY     -4215.241738034280

DIPOLE MOMENT
-------------
                                X             Y             Z
Electronic contribution:      0.00000       0.00000       0.92472
Nuclear contribution   :      0.00000       0.00000      -2.68116
                        -----------------------------------------
Total Dipole Moment    :      0.00000       0.00000      -1.75644
                        -----------------------------------------
Magnitude (a.u.)       :      1.75644
Magnitude (Debye)      :      4.46450

Rotational constants in cm-1:     0.000000     0.099117     0.099117
Rotational constants in MHz :     0.000000  2971.467067  2971.467067

                             ****ORCA TERMINATED NORMALLY****
TOTAL RUN TIME: 0 days 0 hours 0 minutes 8 seconds 660 msec
