                         Program Version 4.2.0 -  RELEASE  -
|  1> #
|  2> # 53_CuO scanfunc/aug-cc-pvtz
|  3> #
|  4> ! scanfunc d3bj aug-cc-pvtz def2/j grid4 nofinalgrid
|  5>
|  6> *xyz 0 2
|  7>   Cu  0.00000000000000      0.00000000000000      0.13870993735929
|  8>   O   0.00000000000000      0.00000000000000      1.86129006264071
|  9> *
| 10>
| 11> %pal
| 12> nprocs 24
| 13> end
| 14>
| 15>
| 16>                          ****END OF INPUT****

CARTESIAN COORDINATES (ANGSTROEM)
---------------------------------
  Cu     0.000000    0.000000    0.138710
  O      0.000000    0.000000    1.861290

 Total Charge           Charge          ....    0
 Multiplicity           Mult            ....    2
 Number of Electrons    NEL             ....   37
 Basis Dimension        Dim             ....  139

ORBITAL ENERGIES
----------------
                 SPIN UP ORBITALS
  NO   OCC          E(Eh)            E(eV)
   0   1.0000    -322.547677     -8776.9685
   1   1.0000     -38.607753     -1050.5704
   2   1.0000     -33.828872      -920.5304
   3   1.0000     -33.828172      -920.5114
   4   1.0000     -33.826235      -920.4587
   5   1.0000     -18.953453      -515.7497
   6   1.0000      -4.331982      -117.8792
   7   1.0000      -2.822650       -76.8082
   8   1.0000      -2.804736       -76.3208
   9   1.0000      -2.794705       -76.0478
  10   1.0000      -0.885285       -24.0898
  11   1.0000      -0.350700        -9.5430
  12   1.0000      -0.348587        -9.4855
  13   1.0000      -0.314162        -8.5488
  14   1.0000      -0.271483        -7.3874
  15   1.0000      -0.270959        -7.3732
  16   1.0000      -0.269618        -7.3367
  17   1.0000      -0.237113        -6.4522
  18   1.0000      -0.229937        -6.2569
  19   0.0000      -0.136431        -3.7125
  20   0.0000      -0.011570        -0.3148
  21   0.0000      -0.006302        -0.1715
  22   0.0000       0.016124         0.4388
  23   0.0000       0.023721         0.6455

                 SPIN DOWN ORBITALS
  NO   OCC          E(Eh)            E(eV)
   0   1.0000    -322.547319     -8776.9587
   1   1.0000     -38.599242     -1050.3388
   2   1.0000     -33.823598      -920.3869
   3   1.0000     -33.821860      -920.3396
   4   1.0000     -33.821455      -920.3286
   5   1.0000     -18.952008      -515.7104
   6   1.0000      -4.315808      -117.4391
   7   1.0000      -2.798963       -76.1636
   8   1.0000      -2.790864       -75.9433
   9   1.0000      -2.787346       -75.8475
  10   1.0000      -0.798886       -21.7388
  11   1.0000      -0.330565        -8.9951
  12   1.0000      -0.304881        -8.2962
  13   1.0000      -0.273864        -7.4522
  14   1.0000      -0.269390        -7.3305
  15   1.0000      -0.267890        -7.2897
  16   1.0000      -0.231073        -6.2878
  17   1.0000      -0.205794        -5.5999
  18   0.0000      -0.153211        -4.1691
  19   0.0000      -0.133974        -3.6456
  20   0.0000      -0.009467        -0.2576
  21   0.0000      -0.002764        -0.0752
  22   0.0000       0.019038         0.5180

MULLIKEN ATOMIC CHARGES AND SPIN POPULATIONS
--------------------------------------------
   0 Cu:    0.581283    0.048931
   1 O :   -0.581283    0.951069
Sum of atomic charges         :    0.0000000

LOEWDIN ATOMIC CHARGES AND SPIN POPULATIONS
-------------------------------------------
   0 Cu:    0.402170    0.126392
   1 O :   -0.402170    0.873608

  Mayer bond orders larger than 0.100000
B(  0-Cu,  1-O ) :   1.2321

Dispersion correction           -0.000089182
FINAL SINGLE POINT ENERGY     -1715.830831253903

DIPOLE MOMENT
-------------
                                X             Y             Z
Electronic contribution:     -0.00000      -0.00000      -3.54502
Nuclear contribution   :      0.00000       0.00000       1.81807
                        -----------------------------------------
Total Dipole Moment    :     -0.00000      -0.00000      -1.72695
                        -----------------------------------------
Magnitude (a.u.)       :      1.72695
Magnitude (Debye)      :      4.38957

Rotational constants in cm-1:     0.000000     0.444492     0.444492
Rotational constants in MHz :     0.000000 13325.547784 13325.547784

                             ****ORCA TERMINATED NORMALLY****
TOTAL RUN TIME: 0 days 0 hours 0 minutes 9 seconds 847 msec
