                         Program Version 4.2.0 -  RELEASE  -
|  1> #
|  2> # 54_CuS scanfunc/aug-cc-pvtz
|  3> #
|  4> ! scanfunc d3bj aug-cc-pvtz def2/j grid4 nofinalgrid
|  5>
|  6> *xyz 0 2
|  7>   Cu  0.00000000000000      0.00000000000000     -0.02892798555449
|  8>   S   0.00000000000000      0.00000000000000      2.02892798555449
|  9> *
| 10>
| 11> %pal
| 12> nprocs 24
| 13> end
| 14>
| 15>
| 16>                          ****END OF INPUT****

CARTESIAN COORDINATES (ANGSTROEM)
---------------------------------
  Cu     0.000000    0.000000   -0.028928
  S      0.000000    0.000000    2.028928

 Total Charge           Charge          ....    0
 Multiplicity           Mult            ....    2
 Number of Electrons    NEL             ....   45
 Basis Dimension        Dim             ....  143

ORBITAL ENERGIES
----------------
                 SPIN UP ORBITALS
  NO   OCC          E(Eh)            E(eV)
   0   1.0000    -322.542771     -8776.8350
   1   1.0000     -88.658643     -2412.5243
   2   1.0000     -38.599506     -1050.3460
   3   1.0000     -33.820903      -920.3136
   4   1.0000     -33.820596      -920.3052
   5   1.0000     -33.818486      -920.2478
   6   1.0000      -7.862923      -213.9610
   7   1.0000      -5.808844      -158.0667
   8   1.0000      -5.796769      -157.7381
   9   1.0000      -5.793036      -157.6365
  10   1.0000      -4.324482      -117.6751
  11   1.0000      -2.812569       -76.5339
  12   1.0000      -2.800700       -76.2109
  13   1.0000      -2.787190       -75.8433
  14   1.0000      -0.634686       -17.2707
  15   1.0000      -0.316655        -8.6166
  16   1.0000      -0.314854        -8.5676
  17   1.0000      -0.293194        -7.9782
  18   1.0000      -0.267852        -7.2886
  19   1.0000      -0.267440        -7.2774
  20   1.0000      -0.242678        -6.6036
  21   1.0000      -0.241763        -6.5787
  22   1.0000      -0.209004        -5.6873
  23   0.0000      -0.131163        -3.5691
  24   0.0000      -0.017231        -0.4689
  25   0.0000      -0.011313        -0.3078
  26   0.0000       0.015471         0.4210
  27   0.0000       0.019680         0.5355

                 SPIN DOWN ORBITALS
  NO   OCC          E(Eh)            E(eV)
   0   1.0000    -322.542265     -8776.8212
   1   1.0000     -88.652801     -2412.3654
   2   1.0000     -38.593208     -1050.1746
   3   1.0000     -33.817135      -920.2110
   4   1.0000     -33.815240      -920.1595
   5   1.0000     -33.815238      -920.1594
   6   1.0000      -7.851442      -213.6486
   7   1.0000      -5.792866      -157.6319
   8   1.0000      -5.789901      -157.5512
   9   1.0000      -5.786097      -157.4477
  10   1.0000      -4.311508      -117.3221
  11   1.0000      -2.794010       -76.0289
  12   1.0000      -2.785446       -75.7958
  13   1.0000      -2.785211       -75.7894
  14   1.0000      -0.600334       -16.3359
  15   1.0000      -0.318309        -8.6616
  16   1.0000      -0.289618        -7.8809
  17   1.0000      -0.266216        -7.2441
  18   1.0000      -0.266071        -7.2402
  19   1.0000      -0.265951        -7.2369
  20   1.0000      -0.240404        -6.5417
  21   1.0000      -0.199284        -5.4228
  22   0.0000      -0.172750        -4.7008
  23   0.0000      -0.126337        -3.4378
  24   0.0000      -0.011709        -0.3186
  25   0.0000      -0.009068        -0.2468
  26   0.0000       0.016379         0.4457

MULLIKEN ATOMIC CHARGES AND SPIN POPULATIONS
--------------------------------------------
   0 Cu:    0.374872    0.127984
   1 S :   -0.374872    0.872016
Sum of atomic charges         :   -0.0000000

LOEWDIN ATOMIC CHARGES AND SPIN POPULATIONS
-------------------------------------------
   0 Cu:   -0.034742    0.232798
   1 S :    0.034742    0.767202

  Mayer bond orders larger than 0.100000
B(  0-Cu,  1-S ) :   1.5333

Dispersion correction           -0.000177725
FINAL SINGLE POINT ENERGY     -2038.942600500797

DIPOLE MOMENT
-------------
                                X             Y             Z
Electronic contribution:      0.00000      -0.00000      -5.18953
Nuclear contribution   :      0.00000       0.00000       3.54103
                        -----------------------------------------
Total Dipole Moment    :      0.00000      -0.00000      -1.64851
                        -----------------------------------------
Magnitude (a.u.)       :      1.64851
Magnitude (Debye)      :      4.19017

Rotational constants in cm-1:     0.000000     0.186806     0.186806
Rotational constants in MHz :     0.000000  5600.307820  5600.307820

                             ****ORCA TERMINATED NORMALLY****
TOTAL RUN TIME: 0 days 0 hours 0 minutes 9 seconds 392 msec
