                         Program Version 4.2.0 -  RELEASE  -
|  1> #
|  2> # 61_Sc scanfunc/aug-cc-pvtz
|  3> #
|  4> ! scanfunc d3bj aug-cc-pvtz def2/j grid4 nofinalgrid
|  5>
|  6> *xyz 0 2
|  7> Sc 0.0 0.0 0.0
|  8> *
|  9>
| 10> %pal
| 11> nprocs 24
| 12> end
| 13>
| 14>
| 15>                          ****END OF INPUT****

CARTESIAN COORDINATES (ANGSTROEM)
---------------------------------
  Sc     0.000000    0.000000    0.000000

 Total Charge           Charge          ....    0
 Multiplicity           Mult            ....    2
 Number of Electrons    NEL             ....   21
 Basis Dimension        Dim             ....   93

ORBITAL ENERGIES
----------------
                 SPIN UP ORBITALS
  NO   OCC          E(Eh)            E(eV)
   0   1.0000    -161.375272     -4391.2444
   1   1.0000     -17.508766      -476.4377
   2   1.0000     -14.432400      -392.7256
   3   1.0000     -14.427032      -392.5795
   4   1.0000     -14.426939      -392.5770
   5   1.0000      -2.048923       -55.7540
   6   1.0000      -1.258094       -34.2345
   7   1.0000      -1.248606       -33.9763
   8   1.0000      -1.248480       -33.9729
   9   1.0000      -0.154822        -4.2129
  10   1.0000      -0.141639        -3.8542
  11   0.0000      -0.095186        -2.5901
  12   0.0000      -0.095086        -2.5874
  13   0.0000      -0.088194        -2.3999
  14   0.0000      -0.071545        -1.9468
  15   0.0000      -0.051285        -1.3955

                 SPIN DOWN ORBITALS
  NO   OCC          E(Eh)            E(eV)
   0   1.0000    -161.375419     -4391.2484
   1   1.0000     -17.505218      -476.3412
   2   1.0000     -14.432817      -392.7369
   3   1.0000     -14.419200      -392.3664
   4   1.0000     -14.419166      -392.3655
   5   1.0000      -2.025449       -55.1153
   6   1.0000      -1.251049       -34.0428
   7   1.0000      -1.210977       -32.9524
   8   1.0000      -1.210911       -32.9506
   9   1.0000      -0.145158        -3.9500
  10   0.0000      -0.080595        -2.1931
  11   0.0000      -0.080013        -2.1773
  12   0.0000      -0.079944        -2.1754
  13   0.0000      -0.059505        -1.6192
  14   0.0000      -0.058665        -1.5963

MULLIKEN ATOMIC CHARGES AND SPIN POPULATIONS
--------------------------------------------
   0 Sc:   -0.000000    1.000000
Sum of atomic charges         :   -0.0000000

LOEWDIN ATOMIC CHARGES AND SPIN POPULATIONS
-------------------------------------------
   0 Sc:   -0.000000    1.000000

Dispersion correction            0.000000000
FINAL SINGLE POINT ENERGY      -760.647765993402

DIPOLE MOMENT
-------------
                                X             Y             Z
Electronic contribution:     -0.00000      -0.00000       0.00000
Nuclear contribution   :      0.00000       0.00000       0.00000
                        -----------------------------------------
Total Dipole Moment    :     -0.00000      -0.00000       0.00000
                        -----------------------------------------
Magnitude (a.u.)       :      0.00000
Magnitude (Debye)      :      0.00000

Rotational constants in cm-1:     0.000000     0.000000     0.000000
Rotational constants in MHz :     0.000000     0.000000     0.000000

                             ****ORCA TERMINATED NORMALLY****
TOTAL RUN TIME: 0 days 0 hours 0 minutes 9 seconds 361 msec
