                         Program Version 4.2.0 -  RELEASE  -
|  1> #
|  2> # 62_Ti scanfunc/aug-cc-pvtz
|  3> #
|  4> ! scanfunc d3bj aug-cc-pvtz def2/j grid4 nofinalgrid
|  5>
|  6> *xyz 0 3
|  7> Ti 0.0 0.0 0.0
|  8> *
|  9>
| 10> %pal
| 11> nprocs 24
| 12> end
| 13>
| 14>
| 15>                          ****END OF INPUT****

CARTESIAN COORDINATES (ANGSTROEM)
---------------------------------
  Ti     0.000000    0.000000    0.000000

 Total Charge           Charge          ....    0
 Multiplicity           Mult            ....    3
 Number of Electrons    NEL             ....   22
 Basis Dimension        Dim             ....   93

ORBITAL ENERGIES
----------------
                 SPIN UP ORBITALS
  NO   OCC          E(Eh)            E(eV)
   0   1.0000    -178.538668     -4858.2842
   1   1.0000     -19.750343      -537.4341
   2   1.0000     -16.463252      -447.9879
   3   1.0000     -16.462926      -447.9790
   4   1.0000     -16.459015      -447.8726
   5   1.0000      -2.314005       -62.9673
   6   1.0000      -1.446804       -39.3695
   7   1.0000      -1.434205       -39.0267
   8   1.0000      -1.433610       -39.0105
   9   1.0000      -0.180950        -4.9239
  10   1.0000      -0.180515        -4.9121
  11   1.0000      -0.166454        -4.5295
  12   0.0000      -0.120894        -3.2897
  13   0.0000      -0.097912        -2.6643
  14   0.0000      -0.097147        -2.6435
  15   0.0000      -0.048442        -1.3182
  16   0.0000      -0.047899        -1.3034

                 SPIN DOWN ORBITALS
  NO   OCC          E(Eh)            E(eV)
   0   1.0000    -178.538846     -4858.2890
   1   1.0000     -19.730150      -536.8847
   2   1.0000     -16.446363      -447.5283
   3   1.0000     -16.442002      -447.4096
   4   1.0000     -16.441640      -447.3998
   5   1.0000      -2.260501       -61.5114
   6   1.0000      -1.385158       -37.6921
   7   1.0000      -1.368478       -37.2382
   8   1.0000      -1.367831       -37.2206
   9   1.0000      -0.146696        -3.9918
  10   0.0000      -0.078491        -2.1358
  11   0.0000      -0.078144        -2.1264
  12   0.0000      -0.078006        -2.1227
  13   0.0000      -0.056123        -1.5272
  14   0.0000      -0.042577        -1.1586

MULLIKEN ATOMIC CHARGES AND SPIN POPULATIONS
--------------------------------------------
   0 Ti:   -0.000000    2.000000
Sum of atomic charges         :   -0.0000000

LOEWDIN ATOMIC CHARGES AND SPIN POPULATIONS
-------------------------------------------
   0 Ti:   -0.000000    2.000000

Dispersion correction            0.000000000
FINAL SINGLE POINT ENERGY      -849.393364282780

DIPOLE MOMENT
-------------
                                X             Y             Z
Electronic contribution:     -0.00000       0.00000       0.00000
Nuclear contribution   :      0.00000       0.00000       0.00000
                        -----------------------------------------
Total Dipole Moment    :     -0.00000       0.00000       0.00000
                        -----------------------------------------
Magnitude (a.u.)       :      0.00000
Magnitude (Debye)      :      0.00000

Rotational constants in cm-1:     0.000000     0.000000     0.000000
Rotational constants in MHz :     0.000000     0.000000     0.000000

                             ****ORCA TERMINATED NORMALLY****
TOTAL RUN TIME: 0 days 0 hours 0 minutes 11 seconds 168 msec
