                         Program Version 4.2.0 -  RELEASE  -
|  1> #
|  2> # 64_Cr scanfunc/aug-cc-pvtz
|  3> #
|  4> ! scanfunc d3bj aug-cc-pvtz def2/j grid4 nofinalgrid
|  5>
|  6> *xyz 0 7
|  7> Cr 0.0 0.0 0.0
|  8> *
|  9>
| 10> %pal
| 11> nprocs 24
| 12> end
| 13>
| 14>
| 15>                          ****END OF INPUT****

CARTESIAN COORDINATES (ANGSTROEM)
---------------------------------
  Cr     0.000000    0.000000    0.000000

 Total Charge           Charge          ....    0
 Multiplicity           Mult            ....    7
 Number of Electrons    NEL             ....   24
 Basis Dimension        Dim             ....   93

ORBITAL ENERGIES
----------------
                 SPIN UP ORBITALS
  NO   OCC          E(Eh)            E(eV)
   0   1.0000    -214.993580     -5850.2727
   1   1.0000     -24.529694      -667.4869
   2   1.0000     -20.741378      -564.4016
   3   1.0000     -20.741378      -564.4016
   4   1.0000     -20.741378      -564.4016
   5   1.0000      -2.819698       -76.7279
   6   1.0000      -1.757971       -47.8368
   7   1.0000      -1.757971       -47.8368
   8   1.0000      -1.757971       -47.8368
   9   1.0000      -0.177554        -4.8315
  10   1.0000      -0.145977        -3.9722
  11   1.0000      -0.145977        -3.9722
  12   1.0000      -0.145977        -3.9722
  13   1.0000      -0.145977        -3.9722
  14   1.0000      -0.145977        -3.9722
  15   0.0000      -0.041169        -1.1203
  16   0.0000      -0.041169        -1.1203
  17   0.0000      -0.041169        -1.1203
  18   0.0000       0.016241         0.4419
  19   0.0000       0.031358         0.8533

                 SPIN DOWN ORBITALS
  NO   OCC          E(Eh)            E(eV)
   0   1.0000    -214.995621     -5850.3283
   1   1.0000     -24.377460      -663.3444
   2   1.0000     -20.644651      -561.7695
   3   1.0000     -20.644651      -561.7695
   4   1.0000     -20.644651      -561.7695
   5   1.0000      -2.625281       -71.4375
   6   1.0000      -1.561913       -42.5018
   7   1.0000      -1.561913       -42.5018
   8   1.0000      -1.561913       -42.5018
   9   0.0000      -0.033999        -0.9251
  10   0.0000       0.015787         0.4296
  11   0.0000       0.015791         0.4297
  12   0.0000       0.015793         0.4298
  13   0.0000       0.033604         0.9144

MULLIKEN ATOMIC CHARGES AND SPIN POPULATIONS
--------------------------------------------
   0 Cr:   -0.000000    6.000000
Sum of atomic charges         :   -0.0000000

LOEWDIN ATOMIC CHARGES AND SPIN POPULATIONS
-------------------------------------------
   0 Cr:   -0.000000    6.000000

Dispersion correction            0.000000000
FINAL SINGLE POINT ENERGY     -1044.582172903662

DIPOLE MOMENT
-------------
                                X             Y             Z
Electronic contribution:      0.00000       0.00000      -0.00000
Nuclear contribution   :      0.00000       0.00000       0.00000
                        -----------------------------------------
Total Dipole Moment    :      0.00000       0.00000      -0.00000
                        -----------------------------------------
Magnitude (a.u.)       :      0.00000
Magnitude (Debye)      :      0.00000

Rotational constants in cm-1:     0.000000     0.000000     0.000000
Rotational constants in MHz :     0.000000     0.000000     0.000000

                             ****ORCA TERMINATED NORMALLY****
TOTAL RUN TIME: 0 days 0 hours 0 minutes 5 seconds 241 msec
