                         Program Version 4.2.0 -  RELEASE  -
|  1> #
|  2> # 65_Mn scanfunc/aug-cc-pvtz
|  3> #
|  4> ! scanfunc d3bj aug-cc-pvtz def2/j grid4 nofinalgrid
|  5>
|  6> *xyz 0 6
|  7> Mn 0.0 0.0 0.0
|  8> *
|  9>
| 10> %pal
| 11> nprocs 24
| 12> end
| 13>
| 14>
| 15>                          ****END OF INPUT****

CARTESIAN COORDINATES (ANGSTROEM)
---------------------------------
  Mn     0.000000    0.000000    0.000000

 Total Charge           Charge          ....    0
 Multiplicity           Mult            ....    6
 Number of Electrons    NEL             ....   25
 Basis Dimension        Dim             ....   93

ORBITAL ENERGIES
----------------
                 SPIN UP ORBITALS
  NO   OCC          E(Eh)            E(eV)
   0   1.0000    -234.948208     -6393.2658
   1   1.0000     -27.348144      -744.1808
   2   1.0000     -23.331442      -634.8808
   3   1.0000     -23.331440      -634.8808
   4   1.0000     -23.331440      -634.8808
   5   1.0000      -3.286817       -89.4388
   6   1.0000      -2.135426       -58.1079
   7   1.0000      -2.135426       -58.1079
   8   1.0000      -2.135426       -58.1079
   9   1.0000      -0.333602        -9.0778
  10   1.0000      -0.333602        -9.0778
  11   1.0000      -0.333601        -9.0778
  12   1.0000      -0.333601        -9.0777
  13   1.0000      -0.333601        -9.0777
  14   1.0000      -0.211941        -5.7672
  15   0.0000      -0.056665        -1.5419
  16   0.0000      -0.056663        -1.5419
  17   0.0000      -0.056656        -1.5417
  18   0.0000       0.006157         0.1675
  19   0.0000       0.025722         0.6999

                 SPIN DOWN ORBITALS
  NO   OCC          E(Eh)            E(eV)
   0   1.0000    -234.947765     -6393.2537
   1   1.0000     -27.222324      -740.7571
   2   1.0000     -23.240202      -632.3981
   3   1.0000     -23.240202      -632.3981
   4   1.0000     -23.240202      -632.3980
   5   1.0000      -3.065284       -83.4106
   6   1.0000      -1.910404       -51.9847
   7   1.0000      -1.910404       -51.9847
   8   1.0000      -1.910404       -51.9847
   9   1.0000      -0.161295        -4.3891
  10   0.0000      -0.115943        -3.1550
  11   0.0000      -0.115943        -3.1550
  12   0.0000      -0.115942        -3.1550
  13   0.0000      -0.115939        -3.1548
  14   0.0000      -0.115938        -3.1548

MULLIKEN ATOMIC CHARGES AND SPIN POPULATIONS
--------------------------------------------
   0 Mn:   -0.000000    5.000000
Sum of atomic charges         :   -0.0000000

LOEWDIN ATOMIC CHARGES AND SPIN POPULATIONS
-------------------------------------------
   0 Mn:   -0.000000    5.000000

Dispersion correction            0.000000000
FINAL SINGLE POINT ENERGY     -1151.121976281951

DIPOLE MOMENT
-------------
                                X             Y             Z
Electronic contribution:      0.00000      -0.00000       0.00000
Nuclear contribution   :      0.00000       0.00000       0.00000
                        -----------------------------------------
Total Dipole Moment    :      0.00000      -0.00000       0.00000
                        -----------------------------------------
Magnitude (a.u.)       :      0.00000
Magnitude (Debye)      :      0.00001

Rotational constants in cm-1:     0.000000     0.000000     0.000000
Rotational constants in MHz :     0.000000     0.000000     0.000000

                             ****ORCA TERMINATED NORMALLY****
TOTAL RUN TIME: 0 days 0 hours 0 minutes 6 seconds 19 msec
