                         Program Version 4.2.0 -  RELEASE  -
|  1> #
|  2> # 67_Co scanfunc/aug-cc-pvtz
|  3> #
|  4> ! scanfunc d3bj aug-cc-pvtz def2/j grid4 nofinalgrid
|  5>
|  6> *xyz 0 4
|  7> Co 0.0 0.0 0.0
|  8> *
|  9>
| 10> %pal
| 11> nprocs 24
| 12> end
| 13>
| 14>
| 15>                          ****END OF INPUT****

CARTESIAN COORDINATES (ANGSTROEM)
---------------------------------
  Co     0.000000    0.000000    0.000000

 Total Charge           Charge          ....    0
 Multiplicity           Mult            ....    4
 Number of Electrons    NEL             ....   27
 Basis Dimension        Dim             ....   93

ORBITAL ENERGIES
----------------
                 SPIN UP ORBITALS
  NO   OCC          E(Eh)            E(eV)
   0   1.0000    -276.991820     -7537.3306
   1   1.0000     -32.514028      -884.7517
   2   1.0000     -28.180994      -766.8438
   3   1.0000     -28.180348      -766.8263
   4   1.0000     -28.179668      -766.8077
   5   1.0000      -3.650144       -99.3255
   6   1.0000      -2.324789       -63.2607
   7   1.0000      -2.323295       -63.2201
   8   1.0000      -2.321814       -63.1798
   9   1.0000      -0.222411        -6.0521
  10   1.0000      -0.222369        -6.0510
  11   1.0000      -0.183343        -4.9890
  12   1.0000      -0.162602        -4.4246
  13   1.0000      -0.162484        -4.4214
  14   1.0000      -0.162260        -4.4153
  15   0.0000      -0.034212        -0.9310
  16   0.0000      -0.033989        -0.9249
  17   0.0000      -0.033932        -0.9233
  18   0.0000       0.026204         0.7130
  19   0.0000       0.050084         1.3629

                 SPIN DOWN ORBITALS
  NO   OCC          E(Eh)            E(eV)
   0   1.0000    -276.986363     -7537.1821
   1   1.0000     -32.468945      -883.5249
   2   1.0000     -28.148135      -765.9497
   3   1.0000     -28.147417      -765.9301
   4   1.0000     -28.146442      -765.9036
   5   1.0000      -3.531145       -96.0873
   6   1.0000      -2.215123       -60.2766
   7   1.0000      -2.212509       -60.2054
   8   1.0000      -2.211155       -60.1686
   9   1.0000      -0.140935        -3.8350
  10   1.0000      -0.139065        -3.7841
  11   1.0000      -0.137894        -3.7523
  12   0.0000      -0.103043        -2.8040
  13   0.0000      -0.019893        -0.5413
  14   0.0000      -0.018649        -0.5075
  15   0.0000       0.002564         0.0698
  16   0.0000       0.002850         0.0776

MULLIKEN ATOMIC CHARGES AND SPIN POPULATIONS
--------------------------------------------
   0 Co:   -0.000000    3.000000
Sum of atomic charges         :   -0.0000000

LOEWDIN ATOMIC CHARGES AND SPIN POPULATIONS
-------------------------------------------
   0 Co:   -0.000000    3.000000

Dispersion correction            0.000000000
FINAL SINGLE POINT ENERGY     -1382.873728111050

DIPOLE MOMENT
-------------
                                X             Y             Z
Electronic contribution:     -0.00000       0.00000       0.00000
Nuclear contribution   :      0.00000       0.00000       0.00000
                        -----------------------------------------
Total Dipole Moment    :     -0.00000       0.00000       0.00000
                        -----------------------------------------
Magnitude (a.u.)       :      0.00000
Magnitude (Debye)      :      0.00000

Rotational constants in cm-1:     0.000000     0.000000     0.000000
Rotational constants in MHz :     0.000000     0.000000     0.000000

                             ****ORCA TERMINATED NORMALLY****
TOTAL RUN TIME: 0 days 0 hours 0 minutes 8 seconds 389 msec
