                         Program Version 4.2.0 -  RELEASE  -
|  1> #
|  2> # 70_Zn scanfunc/aug-cc-pvtz
|  3> #
|  4> ! scanfunc d3bj aug-cc-pvtz def2/j grid4 nofinalgrid
|  5>
|  6> *xyz 0 1
|  7> Zn 0.0 0.0 0.0
|  8> *
|  9>
| 10> %pal
| 11> nprocs 24
| 12> end
| 13>
| 14>
| 15>                          ****END OF INPUT****

CARTESIAN COORDINATES (ANGSTROEM)
---------------------------------
  Zn     0.000000    0.000000    0.000000

 Total Charge           Charge          ....    0
 Multiplicity           Mult            ....    1
 Number of Electrons    NEL             ....   30
 Basis Dimension        Dim             ....   93

ORBITAL ENERGIES
----------------

  NO   OCC          E(Eh)            E(eV)
   0   2.0000    -346.766109     -9435.9856
   1   2.0000     -41.990256     -1142.6129
   2   2.0000     -36.975429     -1006.1526
   3   2.0000     -36.975429     -1006.1526
   4   2.0000     -36.975429     -1006.1526
   5   2.0000      -4.776742      -129.9818
   6   2.0000      -3.141706       -85.4902
   7   2.0000      -3.141706       -85.4902
   8   2.0000      -3.141706       -85.4902
   9   2.0000      -0.396332       -10.7847
  10   2.0000      -0.396332       -10.7847
  11   2.0000      -0.396332       -10.7847
  12   2.0000      -0.396332       -10.7847
  13   2.0000      -0.396332       -10.7847
  14   2.0000      -0.225985        -6.1494
  15   0.0000      -0.025773        -0.7013
  16   0.0000      -0.025773        -0.7013
  17   0.0000      -0.025773        -0.7013
  18   0.0000       0.106920         2.9094
  19   0.0000       0.126798         3.4503

MULLIKEN ATOMIC CHARGES
-----------------------
   0 Zn:    0.000000
Sum of atomic charges:    0.0000000

LOEWDIN ATOMIC CHARGES
----------------------
   0 Zn:    0.000000

Dispersion correction            0.000000000
FINAL SINGLE POINT ENERGY     -1779.649265945251

DIPOLE MOMENT
-------------
                                X             Y             Z
Electronic contribution:     -0.00000       0.00000      -0.00000
Nuclear contribution   :      0.00000       0.00000       0.00000
                        -----------------------------------------
Total Dipole Moment    :     -0.00000       0.00000      -0.00000
                        -----------------------------------------
Magnitude (a.u.)       :      0.00000
Magnitude (Debye)      :      0.00000

Rotational constants in cm-1:     0.000000     0.000000     0.000000
Rotational constants in MHz :     0.000000     0.000000     0.000000

                             ****ORCA TERMINATED NORMALLY****
TOTAL RUN TIME: 0 days 0 hours 0 minutes 4 seconds 778 msec
