                         Program Version 4.2.0 -  RELEASE  -
|  1> #
|  2> # 75_O scanfunc/aug-cc-pvtz
|  3> #
|  4> ! scanfunc d3bj aug-cc-pvtz def2/j grid4 nofinalgrid
|  5>
|  6> *xyz 0 3
|  7> O 0.0 0.0 0.0
|  8> *
|  9>
| 10> %pal
| 11> nprocs 24
| 12> end
| 13>
| 14>
| 15>                          ****END OF INPUT****

CARTESIAN COORDINATES (ANGSTROEM)
---------------------------------
  O      0.000000    0.000000    0.000000

 Total Charge           Charge          ....    0
 Multiplicity           Mult            ....    3
 Number of Electrons    NEL             ....    8
 Basis Dimension        Dim             ....   46

ORBITAL ENERGIES
----------------
                 SPIN UP ORBITALS
  NO   OCC          E(Eh)            E(eV)
   0   1.0000     -19.066525      -518.8265
   1   1.0000      -0.990204       -26.9448
   2   1.0000      -0.423312       -11.5189
   3   1.0000      -0.423307       -11.5188
   4   1.0000      -0.346756        -9.4357
   5   0.0000       0.084661         2.3037
   6   0.0000       0.115509         3.1432
   7   0.0000       0.115510         3.1432
   8   0.0000       0.120865         3.2889
   9   0.0000       0.514640        14.0041

                 SPIN DOWN ORBITALS
  NO   OCC          E(Eh)            E(eV)
   0   1.0000     -19.043576      -518.2020
   1   1.0000      -0.801931       -21.8217
   2   1.0000      -0.293242        -7.9795
   3   0.0000      -0.203739        -5.5440
   4   0.0000      -0.203713        -5.5433
   5   0.0000       0.129236         3.5167
   6   0.0000       0.173536         4.7222
   7   0.0000       0.173657         4.7255

MULLIKEN ATOMIC CHARGES AND SPIN POPULATIONS
--------------------------------------------
   0 O :   -0.000000    2.000000
Sum of atomic charges         :   -0.0000000

LOEWDIN ATOMIC CHARGES AND SPIN POPULATIONS
-------------------------------------------
   0 O :   -0.000000    2.000000

Dispersion correction            0.000000000
FINAL SINGLE POINT ENERGY       -75.065953131636

DIPOLE MOMENT
-------------
                                X             Y             Z
Electronic contribution:     -0.00000       0.00000      -0.00000
Nuclear contribution   :      0.00000       0.00000       0.00000
                        -----------------------------------------
Total Dipole Moment    :     -0.00000       0.00000      -0.00000
                        -----------------------------------------
Magnitude (a.u.)       :      0.00000
Magnitude (Debye)      :      0.00000

Rotational constants in cm-1:     0.000000     0.000000     0.000000
Rotational constants in MHz :     0.000000     0.000000     0.000000

                             ****ORCA TERMINATED NORMALLY****
TOTAL RUN TIME: 0 days 0 hours 0 minutes 2 seconds 556 msec
