                         Program Version 4.2.0 -  RELEASE  -
|  1> #
|  2> # 01_ScH wb97m-v/aug-cc-pvtz
|  3> #
|  4> ! wb97m-v aug-cc-pvtz def2/jk grid4 nofinalgrid
|  5>
|  6> *xyz 0 1
|  7>   Sc  0.00000000000000      0.00000000000000      0.11546868383427
|  8>   H   0.00000000000000      0.00000000000000      1.88453131616573
|  9> *
| 10>
| 11> %pal
| 12> nprocs 24
| 13> end
| 14>
| 15>
| 16>                          ****END OF INPUT****

CARTESIAN COORDINATES (ANGSTROEM)
---------------------------------
  Sc     0.000000    0.000000    0.115469
  H      0.000000    0.000000    1.884531

 Total Charge           Charge          ....    0
 Multiplicity           Mult            ....    1
 Number of Electrons    NEL             ....   22
 Basis Dimension        Dim             ....  116

ORBITAL ENERGIES
----------------

  NO   OCC          E(Eh)            E(eV)
   0   2.0000    -162.163070     -4412.6815
   1   2.0000     -17.873669      -486.3673
   2   2.0000     -14.730571      -400.8392
   3   2.0000     -14.730571      -400.8392
   4   2.0000     -14.715454      -400.4279
   5   2.0000      -2.271332       -61.8061
   6   2.0000      -1.448922       -39.4272
   7   2.0000      -1.448922       -39.4272
   8   2.0000      -1.430371       -38.9224
   9   2.0000      -0.370959       -10.0943
  10   2.0000      -0.242993        -6.6122
  11   0.0000      -0.011356        -0.3090
  12   0.0000      -0.004538        -0.1235
  13   0.0000      -0.004538        -0.1235
  14   0.0000       0.009201         0.2504
  15   0.0000       0.010637         0.2895

MULLIKEN ATOMIC CHARGES
-----------------------
   0 Sc:    0.192739
   1 H :   -0.192739
Sum of atomic charges:   -0.0000000

LOEWDIN ATOMIC CHARGES
----------------------
   0 Sc:    0.752757
   1 H :   -0.752757

  Mayer bond orders larger than 0.100000
B(  0-Sc,  1-H ) :   0.9426

FINAL SINGLE POINT ENERGY      -761.164466542798

DIPOLE MOMENT
-------------
                                X             Y             Z
Electronic contribution:     -0.00000       0.00000      -2.58717
Nuclear contribution   :      0.00000       0.00000       1.73028
                        -----------------------------------------
Total Dipole Moment    :     -0.00000       0.00000      -0.85688
                        -----------------------------------------
Magnitude (a.u.)       :      0.85688
Magnitude (Debye)      :      2.17803

Rotational constants in cm-1:     0.000000     5.463605     5.463605
Rotational constants in MHz :     0.000000 163794.743331 163794.743331

                             ****ORCA TERMINATED NORMALLY****
TOTAL RUN TIME: 0 days 0 hours 2 minutes 35 seconds 903 msec
