                         Program Version 4.2.0 -  RELEASE  -
|  1> #
|  2> # 02_ScF wb97m-v/aug-cc-pvtz
|  3> #
|  4> ! wb97m-v aug-cc-pvtz def2/jk grid4 nofinalgrid
|  5>
|  6> *xyz 0 1
|  7>   Sc  0.00000000000000      0.00000000000000      0.10357126289626
|  8>   F   0.00000000000000      0.00000000000000      1.89642873710374
|  9> *
| 10>
| 11> %pal
| 12> nprocs 24
| 13> end
| 14>
| 15>
| 16>                          ****END OF INPUT****

CARTESIAN COORDINATES (ANGSTROEM)
---------------------------------
  Sc     0.000000    0.000000    0.103571
  F      0.000000    0.000000    1.896429

 Total Charge           Charge          ....    0
 Multiplicity           Mult            ....    1
 Number of Electrons    NEL             ....   30
 Basis Dimension        Dim             ....  139

ORBITAL ENERGIES
----------------

  NO   OCC          E(Eh)            E(eV)
   0   2.0000    -162.198585     -4413.6479
   1   2.0000     -24.884247      -677.1348
   2   2.0000     -17.918654      -487.5914
   3   2.0000     -14.773712      -402.0131
   4   2.0000     -14.773712      -402.0131
   5   2.0000     -14.761733      -401.6872
   6   2.0000      -2.311660       -62.9035
   7   2.0000      -1.497509       -40.7493
   8   2.0000      -1.483834       -40.3772
   9   2.0000      -1.483834       -40.3772
  10   2.0000      -1.251070       -34.0433
  11   2.0000      -0.542178       -14.7534
  12   2.0000      -0.528269       -14.3749
  13   2.0000      -0.528269       -14.3749
  14   2.0000      -0.253309        -6.8929
  15   0.0000      -0.009640        -0.2623
  16   0.0000      -0.009640        -0.2623
  17   0.0000      -0.008664        -0.2358
  18   0.0000      -0.008499        -0.2313
  19   0.0000      -0.008499        -0.2313

MULLIKEN ATOMIC CHARGES
-----------------------
   0 Sc:    0.596800
   1 F :   -0.596800
Sum of atomic charges:   -0.0000000

LOEWDIN ATOMIC CHARGES
----------------------
   0 Sc:    0.390478
   1 F :   -0.390478

  Mayer bond orders larger than 0.100000
B(  0-Sc,  1-F ) :   0.8180

FINAL SINGLE POINT ENERGY      -860.548830346164

DIPOLE MOMENT
-------------
                                X             Y             Z
Electronic contribution:      0.00000       0.00000      -1.16705
Nuclear contribution   :      0.00000       0.00000       0.30099
                        -----------------------------------------
Total Dipole Moment    :      0.00000       0.00000      -0.86606
                        -----------------------------------------
Magnitude (a.u.)       :      0.86606
Magnitude (Debye)      :      2.20135

Rotational constants in cm-1:     0.000000     0.392705     0.392705
Rotational constants in MHz :     0.000000 11772.989606 11772.989606

                             ****ORCA TERMINATED NORMALLY****
TOTAL RUN TIME: 0 days 0 hours 2 minutes 58 seconds 316 msec
