                         Program Version 4.2.0 -  RELEASE  -
|  1> #
|  2> # 03_ScCl wb97m-v/aug-cc-pvtz
|  3> #
|  4> ! wb97m-v aug-cc-pvtz def2/jk grid4 nofinalgrid
|  5>
|  6> *xyz 0 1
|  7>   Sc  0.00000000000000      0.00000000000000     -0.11786902866458
|  8>   Cl  0.00000000000000      0.00000000000000      2.11786902866458
|  9> *
| 10>
| 11> %pal
| 12> nprocs 24
| 13> end
| 14>
| 15>
| 16>                          ****END OF INPUT****

CARTESIAN COORDINATES (ANGSTROEM)
---------------------------------
  Sc     0.000000    0.000000   -0.117869
  Cl     0.000000    0.000000    2.117869

 Total Charge           Charge          ....    0
 Multiplicity           Mult            ....    1
 Number of Electrons    NEL             ....   38
 Basis Dimension        Dim             ....  143

ORBITAL ENERGIES
----------------

  NO   OCC          E(Eh)            E(eV)
   0   2.0000    -162.186709     -4413.3247
   1   2.0000    -101.866029     -2771.9156
   2   2.0000     -17.900114      -487.0869
   3   2.0000     -14.756751      -401.5516
   4   2.0000     -14.756751      -401.5516
   5   2.0000     -14.741823      -401.1454
   6   2.0000      -9.624822      -261.9047
   7   2.0000      -7.324597      -199.3124
   8   2.0000      -7.323863      -199.2924
   9   2.0000      -7.323863      -199.2924
  10   2.0000      -2.295954       -62.4761
  11   2.0000      -1.471015       -40.0283
  12   2.0000      -1.471015       -40.0283
  13   2.0000      -1.461212       -39.7616
  14   2.0000      -0.905438       -24.6382
  15   2.0000      -0.448316       -12.1993
  16   2.0000      -0.421421       -11.4674
  17   2.0000      -0.421421       -11.4674
  18   2.0000      -0.256629        -6.9832
  19   0.0000      -0.021045        -0.5727
  20   0.0000      -0.009075        -0.2469
  21   0.0000      -0.009075        -0.2469
  22   0.0000      -0.004094        -0.1114
  23   0.0000      -0.004093        -0.1114

MULLIKEN ATOMIC CHARGES
-----------------------
   0 Sc:    0.284705
   1 Cl:   -0.284705
Sum of atomic charges:   -0.0000000

LOEWDIN ATOMIC CHARGES
----------------------
   0 Sc:   -0.142769
   1 Cl:    0.142769

  Mayer bond orders larger than 0.100000
B(  0-Sc,  1-Cl) :   1.2458

FINAL SINGLE POINT ENERGY     -1220.884509991472

DIPOLE MOMENT
-------------
                                X             Y             Z
Electronic contribution:      0.00000       0.00000      -2.35518
Nuclear contribution   :      0.00000       0.00000       1.04067
                        -----------------------------------------
Total Dipole Moment    :      0.00000       0.00000      -1.31451
                        -----------------------------------------
Magnitude (a.u.)       :      1.31451
Magnitude (Debye)      :      3.34121

Rotational constants in cm-1:     0.000000     0.170138     0.170138
Rotational constants in MHz :     0.000000  5100.617263  5100.617263

                             ****ORCA TERMINATED NORMALLY****
TOTAL RUN TIME: 0 days 0 hours 3 minutes 55 seconds 296 msec
