                         Program Version 4.2.0 -  RELEASE  -
|  1> #
|  2> # 05_ScO wb97m-v/aug-cc-pvtz
|  3> #
|  4> ! wb97m-v aug-cc-pvtz def2/jk grid4 nofinalgrid slowconv
|  5>
|  6> *xyz 0 2
|  7>   Sc  0.00000000000000      0.00000000000000      0.16492994527036
|  8>   O   0.00000000000000      0.00000000000000      1.83507005472964
|  9> *
| 10>
| 11> %scf
| 12> maxiter 300
| 13> diismaxeq 15
| 14> directresetfreq 1
| 15> end
| 16>
| 17> %pal
| 18> nprocs 24
| 19> end
| 20>
| 21>
| 22>                          ****END OF INPUT****

CARTESIAN COORDINATES (ANGSTROEM)
---------------------------------
  Sc     0.000000    0.000000    0.164930
  O      0.000000    0.000000    1.835070

 Total Charge           Charge          ....    0
 Multiplicity           Mult            ....    2
 Number of Electrons    NEL             ....   29
 Basis Dimension        Dim             ....  139

ORBITAL ENERGIES
----------------
                 SPIN UP ORBITALS
  NO   OCC          E(Eh)            E(eV)
   0   1.0000    -162.132004     -4411.8361
   1   1.0000     -19.285577      -524.7872
   2   1.0000     -17.838636      -485.4140
   3   1.0000     -14.693264      -399.8240
   4   1.0000     -14.693218      -399.8228
   5   1.0000     -14.686185      -399.6314
   6   1.0000      -2.246247       -61.1235
   7   1.0000      -1.438623       -39.1469
   8   1.0000      -1.423648       -38.7394
   9   1.0000      -1.423517       -38.7359
  10   1.0000      -0.949807       -25.8456
  11   1.0000      -0.398417       -10.8415
  12   1.0000      -0.398355       -10.8398
  13   1.0000      -0.393816       -10.7163
  14   1.0000      -0.238130        -6.4798
  15   0.0000      -0.009842        -0.2678
  16   0.0000      -0.009770        -0.2659
  17   0.0000       0.000768         0.0209
  18   0.0000       0.011259         0.3064
  19   0.0000       0.018652         0.5075

                 SPIN DOWN ORBITALS
  NO   OCC          E(Eh)            E(eV)
   0   1.0000    -162.130852     -4411.8048
   1   1.0000     -19.284945      -524.7700
   2   1.0000     -17.836833      -485.3649
   3   1.0000     -14.691914      -399.7873
   4   1.0000     -14.691908      -399.7871
   5   1.0000     -14.684140      -399.5758
   6   1.0000      -2.240814       -60.9757
   7   1.0000      -1.431338       -38.9487
   8   1.0000      -1.420220       -38.6461
   9   1.0000      -1.419988       -38.6399
  10   1.0000      -0.947513       -25.7831
  11   1.0000      -0.396844       -10.7987
  12   1.0000      -0.396771       -10.7967
  13   1.0000      -0.389117       -10.5884
  14   0.0000      -0.247213        -6.7270
  15   0.0000      -0.234837        -6.3902
  16   0.0000      -0.234069        -6.3693
  17   0.0000      -0.196951        -5.3593
  18   0.0000      -0.196363        -5.3433

MULLIKEN ATOMIC CHARGES AND SPIN POPULATIONS
--------------------------------------------
   0 Sc:    0.814861    0.985930
   1 O :   -0.814861    0.014070
Sum of atomic charges         :   -0.0000000

LOEWDIN ATOMIC CHARGES AND SPIN POPULATIONS
-------------------------------------------
   0 Sc:    0.703937    0.905089
   1 O :   -0.703937    0.094911

  Mayer bond orders larger than 0.100000
B(  0-Sc,  1-O ) :   1.9761

FINAL SINGLE POINT ENERGY      -835.891715494637

DIPOLE MOMENT
-------------
                                X             Y             Z
Electronic contribution:     -0.00261       0.00462      -2.69428
Nuclear contribution   :      0.00000       0.00000       1.22710
                        -----------------------------------------
Total Dipole Moment    :     -0.00261       0.00462      -1.46718
                        -----------------------------------------
Magnitude (a.u.)       :      1.46719
Magnitude (Debye)      :      3.72929

Rotational constants in cm-1:     0.000000     0.512165     0.512165
Rotational constants in MHz :     0.000000 15354.316375 15354.316375

                             ****ORCA TERMINATED NORMALLY****
TOTAL RUN TIME: 0 days 0 hours 31 minutes 23 seconds 28 msec
