                         Program Version 4.2.0 -  RELEASE  -
|  1> #
|  2> # 11_TiO wb97m-v/aug-cc-pvtz
|  3> #
|  4> ! wb97m-v aug-cc-pvtz def2/jk grid4 nofinalgrid
|  5>
|  6> *xyz 0 3
|  7>   Ti  0.00000000000000      0.00000000000000      0.18878211244980
|  8>   O   0.00000000000000      0.00000000000000      1.81121788755020
|  9> *
| 10>
| 11> %pal
| 12> nprocs 24
| 13> end
| 14>
| 15>
| 16>                          ****END OF INPUT****

CARTESIAN COORDINATES (ANGSTROEM)
---------------------------------
  Ti     0.000000    0.000000    0.188782
  O      0.000000    0.000000    1.811218

 Total Charge           Charge          ....    0
 Multiplicity           Mult            ....    3
 Number of Electrons    NEL             ....   30
 Basis Dimension        Dim             ....  139

ORBITAL ENERGIES
----------------
                 SPIN UP ORBITALS
  NO   OCC          E(Eh)            E(eV)
   0   1.0000    -179.184669     -4875.8627
   1   1.0000     -19.971137      -543.4423
   2   1.0000     -19.231895      -523.3265
   3   1.0000     -16.618673      -452.2171
   4   1.0000     -16.606572      -451.8878
   5   1.0000     -16.606572      -451.8878
   6   1.0000      -2.410633       -65.5966
   7   1.0000      -1.535935       -41.7949
   8   1.0000      -1.513647       -41.1884
   9   1.0000      -1.513646       -41.1884
  10   1.0000      -0.907198       -24.6861
  11   1.0000      -0.350702        -9.5431
  12   1.0000      -0.350164        -9.5285
  13   1.0000      -0.350164        -9.5284
  14   1.0000      -0.208180        -5.6649
  15   1.0000      -0.208180        -5.6649
  16   0.0000      -0.043659        -1.1880
  17   0.0000      -0.000061        -0.0017
  18   0.0000      -0.000061        -0.0016
  19   0.0000       0.011305         0.3076
  20   0.0000       0.018868         0.5134

                 SPIN DOWN ORBITALS
  NO   OCC          E(Eh)            E(eV)
   0   1.0000    -179.184851     -4875.8677
   1   1.0000     -19.951086      -542.8967
   2   1.0000     -19.234644      -523.4013
   3   1.0000     -16.613376      -452.0729
   4   1.0000     -16.584737      -451.2936
   5   1.0000     -16.584737      -451.2936
   6   1.0000      -2.351727       -63.9938
   7   1.0000      -1.511462       -41.1290
   8   1.0000      -1.423419       -38.7332
   9   1.0000      -1.423417       -38.7331
  10   1.0000      -0.910672       -24.7806
  11   1.0000      -0.351418        -9.5626
  12   1.0000      -0.351417        -9.5626
  13   1.0000      -0.347877        -9.4662
  14   0.0000      -0.137598        -3.7442
  15   0.0000      -0.099627        -2.7110
  16   0.0000      -0.099615        -2.7107
  17   0.0000      -0.041497        -1.1292
  18   0.0000      -0.041362        -1.1255

MULLIKEN ATOMIC CHARGES AND SPIN POPULATIONS
--------------------------------------------
   0 Ti:    0.671654    2.116130
   1 O :   -0.671654   -0.116130
Sum of atomic charges         :    0.0000000

LOEWDIN ATOMIC CHARGES AND SPIN POPULATIONS
-------------------------------------------
   0 Ti:    0.613396    2.021242
   1 O :   -0.613396   -0.021242

  Mayer bond orders larger than 0.100000
B(  0-Ti,  1-O ) :   2.1393

FINAL SINGLE POINT ENERGY      -924.580843616262

DIPOLE MOMENT
-------------
                                X             Y             Z
Electronic contribution:     -0.00000      -0.00001      -4.28523
Nuclear contribution   :      0.00000       0.00000       1.49807
                        -----------------------------------------
Total Dipole Moment    :     -0.00000      -0.00001      -2.78716
                        -----------------------------------------
Magnitude (a.u.)       :      2.78716
Magnitude (Debye)      :      7.08439

Rotational constants in cm-1:     0.000000     0.533983     0.533983
Rotational constants in MHz :     0.000000 16008.413204 16008.413204

                             ****ORCA TERMINATED NORMALLY****
TOTAL RUN TIME: 0 days 0 hours 4 minutes 16 seconds 132 msec
