                         Program Version 4.2.0 -  RELEASE  -
|  1> #
|  2> # 12_TiS wb97m-v/aug-cc-pvtz
|  3> #
|  4> ! wb97m-v aug-cc-pvtz def2/jk grid4 nofinalgrid
|  5>
|  6> *xyz 0 3
|  7>   Ti  0.00000000000000      0.00000000000000     -0.04354772803913
|  8>   S   0.00000000000000      0.00000000000000      2.04354772803913
|  9> *
| 10>
| 11> %pal
| 12> nprocs 24
| 13> end
| 14>
| 15>
| 16>                          ****END OF INPUT****

CARTESIAN COORDINATES (ANGSTROEM)
---------------------------------
  Ti     0.000000    0.000000   -0.043548
  S      0.000000    0.000000    2.043548

 Total Charge           Charge          ....    0
 Multiplicity           Mult            ....    3
 Number of Electrons    NEL             ....   38
 Basis Dimension        Dim             ....  143

ORBITAL ENERGIES
----------------
                 SPIN UP ORBITALS
  NO   OCC          E(Eh)            E(eV)
   0   1.0000    -179.301977     -4879.0548
   1   1.0000     -89.142006     -2425.6773
   2   1.0000     -20.103627      -547.0475
   3   1.0000     -16.742186      -455.5780
   4   1.0000     -16.742185      -455.5780
   5   1.0000     -16.740486      -455.5318
   6   1.0000      -8.057013      -219.2425
   7   1.0000      -5.963518      -162.2756
   8   1.0000      -5.963105      -162.2643
   9   1.0000      -5.963105      -162.2643
  10   1.0000      -2.528508       -68.8042
  11   1.0000      -1.628643       -44.3176
  12   1.0000      -1.625265       -44.2257
  13   1.0000      -1.625260       -44.2256
  14   1.0000      -0.727273       -19.7901
  15   1.0000      -0.362038        -9.8516
  16   1.0000      -0.331575        -9.0226
  17   1.0000      -0.326962        -8.8971
  18   1.0000      -0.326958        -8.8970
  19   1.0000      -0.275407        -7.4942
  20   0.0000      -0.030518        -0.8304
  21   0.0000      -0.012217        -0.3324
  22   0.0000      -0.012213        -0.3323
  23   0.0000       0.012052         0.3280
  24   0.0000       0.015998         0.4353

                 SPIN DOWN ORBITALS
  NO   OCC          E(Eh)            E(eV)
   0   1.0000    -179.301123     -4879.0316
   1   1.0000     -89.143105     -2425.7072
   2   1.0000     -20.084414      -546.5247
   3   1.0000     -16.728255      -455.1990
   4   1.0000     -16.724801      -455.1050
   5   1.0000     -16.724794      -455.1048
   6   1.0000      -8.058106      -219.2722
   7   1.0000      -5.965077      -162.3180
   8   1.0000      -5.965076      -162.3180
   9   1.0000      -5.964968      -162.3150
  10   1.0000      -2.473177       -67.2986
  11   1.0000      -1.574797       -42.8524
  12   1.0000      -1.559393       -42.4332
  13   1.0000      -1.559369       -42.4326
  14   1.0000      -0.731268       -19.8988
  15   1.0000      -0.344849        -9.3838
  16   1.0000      -0.326210        -8.8766
  17   1.0000      -0.326205        -8.8765
  18   0.0000      -0.115928        -3.1546
  19   0.0000      -0.082449        -2.2436
  20   0.0000      -0.070228        -1.9110
  21   0.0000      -0.061364        -1.6698
  22   0.0000      -0.023694        -0.6447

MULLIKEN ATOMIC CHARGES AND SPIN POPULATIONS
--------------------------------------------
   0 Ti:    0.212729    2.161780
   1 S :   -0.212729   -0.161780
Sum of atomic charges         :   -0.0000000

LOEWDIN ATOMIC CHARGES AND SPIN POPULATIONS
-------------------------------------------
   0 Ti:    0.043864    2.002090
   1 S :   -0.043864   -0.002090

  Mayer bond orders larger than 0.100000
B(  0-Ti,  1-S ) :   2.5318

FINAL SINGLE POINT ENERGY     -1247.570066868195

DIPOLE MOMENT
-------------
                                X             Y             Z
Electronic contribution:      0.00100       0.00006      -5.55993
Nuclear contribution   :      0.00000       0.00000       3.01278
                        -----------------------------------------
Total Dipole Moment    :      0.00100       0.00006      -2.54715
                        -----------------------------------------
Magnitude (a.u.)       :      2.54715
Magnitude (Debye)      :      6.47435

Rotational constants in cm-1:     0.000000     0.201505     0.201505
Rotational constants in MHz :     0.000000  6040.970749  6040.970749

                             ****ORCA TERMINATED NORMALLY****
TOTAL RUN TIME: 0 days 0 hours 15 minutes 49 seconds 303 msec
