                         Program Version 4.2.0 -  RELEASE  -
|  1> #
|  2> # 15_VCl wb97m-v/aug-cc-pvtz
|  3> #
|  4> ! wb97m-v aug-cc-pvtz def2/jk grid4 nofinalgrid
|  5>
|  6> *xyz 0 5
|  7>   V   0.00000000000000      0.00000000000000     -0.10591307408469
|  8>   Cl  0.00000000000000      0.00000000000000      2.10591307408469
|  9> *
| 10>
| 11> %pal
| 12> nprocs 24
| 13> end
| 14>
| 15>
| 16>                          ****END OF INPUT****

CARTESIAN COORDINATES (ANGSTROEM)
---------------------------------
  V      0.000000    0.000000   -0.105913
  Cl     0.000000    0.000000    2.105913

 Total Charge           Charge          ....    0
 Multiplicity           Mult            ....    5
 Number of Electrons    NEL             ....   40
 Basis Dimension        Dim             ....  143

ORBITAL ENERGIES
----------------
                 SPIN UP ORBITALS
  NO   OCC          E(Eh)            E(eV)
   0   1.0000    -197.275137     -5368.1294
   1   1.0000    -101.842469     -2771.2745
   2   1.0000     -22.423085      -610.1632
   3   1.0000     -18.846980      -512.8524
   4   1.0000     -18.845086      -512.8009
   5   1.0000     -18.841487      -512.7029
   6   1.0000      -9.600825      -261.2517
   7   1.0000      -7.300996      -198.6702
   8   1.0000      -7.299879      -198.6398
   9   1.0000      -7.299605      -198.6323
  10   1.0000      -2.773369       -75.4672
  11   1.0000      -1.798871       -48.9498
  12   1.0000      -1.793789       -48.8115
  13   1.0000      -1.788456       -48.6664
  14   1.0000      -0.884203       -24.0604
  15   1.0000      -0.436107       -11.8671
  16   1.0000      -0.409931       -11.1548
  17   1.0000      -0.398073       -10.8321
  18   1.0000      -0.324976        -8.8430
  19   1.0000      -0.320425        -8.7192
  20   1.0000      -0.311916        -8.4877
  21   1.0000      -0.277990        -7.5645
  22   0.0000      -0.024191        -0.6583
  23   0.0000      -0.002812        -0.0765
  24   0.0000       0.003962         0.1078
  25   0.0000       0.016171         0.4400
  26   0.0000       0.018016         0.4902

                 SPIN DOWN ORBITALS
  NO   OCC          E(Eh)            E(eV)
   0   1.0000    -197.273928     -5368.0965
   1   1.0000    -101.842479     -2771.2747
   2   1.0000     -22.375641      -608.8721
   3   1.0000     -18.816126      -512.0128
   4   1.0000     -18.806490      -511.7506
   5   1.0000     -18.796176      -511.4700
   6   1.0000      -9.600832      -261.2519
   7   1.0000      -7.301356      -198.6800
   8   1.0000      -7.300110      -198.6461
   9   1.0000      -7.299041      -198.6170
  10   1.0000      -2.653942       -72.2174
  11   1.0000      -1.684649       -45.8416
  12   1.0000      -1.659460       -45.1562
  13   1.0000      -1.633108       -44.4391
  14   1.0000      -0.882416       -24.0118
  15   1.0000      -0.423948       -11.5362
  16   1.0000      -0.397013       -10.8033
  17   1.0000      -0.393941       -10.7197
  18   0.0000      -0.226950        -6.1756
  19   0.0000      -0.196541        -5.3482
  20   0.0000      -0.169441        -4.6107
  21   0.0000      -0.138692        -3.7740
  22   0.0000      -0.105119        -2.8604

MULLIKEN ATOMIC CHARGES AND SPIN POPULATIONS
--------------------------------------------
   0 V :    0.374193    3.946454
   1 Cl:   -0.374193    0.053546
Sum of atomic charges         :   -0.0000000

LOEWDIN ATOMIC CHARGES AND SPIN POPULATIONS
-------------------------------------------
   0 V :   -0.047099    3.871514
   1 Cl:    0.047099    0.128486

  Mayer bond orders larger than 0.100000
B(  0-V ,  1-Cl) :   1.1677

FINAL SINGLE POINT ENERGY     -1404.141101960577

DIPOLE MOMENT
-------------
                                X             Y             Z
Electronic contribution:     -0.00043       0.00024      -4.31391
Nuclear contribution   :      0.00000       0.00000       2.44617
                        -----------------------------------------
Total Dipole Moment    :     -0.00043       0.00024      -1.86774
                        -----------------------------------------
Magnitude (a.u.)       :      1.86774
Magnitude (Debye)      :      4.74741

Rotational constants in cm-1:     0.000000     0.164840     0.164840
Rotational constants in MHz :     0.000000  4941.766851  4941.766851

                             ****ORCA TERMINATED NORMALLY****
TOTAL RUN TIME: 0 days 0 hours 15 minutes 51 seconds 310 msec
