                         Program Version 4.2.0 -  RELEASE  -
|  1> #
|  2> # 19_CrH wb97m-v/aug-cc-pvtz
|  3> #
|  4> ! wb97m-v aug-cc-pvtz def2/jk grid4 nofinalgrid
|  5>
|  6> *xyz 0 6
|  7>   Cr  0.00000000000000      0.00000000000000      0.17036458455703
|  8>   H   0.00000000000000      0.00000000000000      1.82963541544297
|  9> *
| 10>
| 11> %pal
| 12> nprocs 24
| 13> end
| 14>
| 15>
| 16>                          ****END OF INPUT****

CARTESIAN COORDINATES (ANGSTROEM)
---------------------------------
  Cr     0.000000    0.000000    0.170365
  H      0.000000    0.000000    1.829635

 Total Charge           Charge          ....    0
 Multiplicity           Mult            ....    6
 Number of Electrons    NEL             ....   25
 Basis Dimension        Dim             ....  116

ORBITAL ENERGIES
----------------
                 SPIN UP ORBITALS
  NO   OCC          E(Eh)            E(eV)
   0   1.0000    -216.110573     -5880.6676
   1   1.0000     -24.860207      -676.4806
   2   1.0000     -21.063387      -573.1639
   3   1.0000     -21.063386      -573.1639
   4   1.0000     -21.063259      -573.1604
   5   1.0000      -3.015169       -82.0469
   6   1.0000      -1.955767       -53.2191
   7   1.0000      -1.952961       -53.1428
   8   1.0000      -1.952961       -53.1428
   9   1.0000      -0.375510       -10.2181
  10   1.0000      -0.322467        -8.7748
  11   1.0000      -0.322466        -8.7747
  12   1.0000      -0.316365        -8.6087
  13   1.0000      -0.316365        -8.6087
  14   1.0000      -0.277302        -7.5458
  15   0.0000      -0.017406        -0.4736
  16   0.0000       0.004784         0.1302
  17   0.0000       0.004793         0.1304
  18   0.0000       0.015630         0.4253
  19   0.0000       0.029832         0.8118

                 SPIN DOWN ORBITALS
  NO   OCC          E(Eh)            E(eV)
   0   1.0000    -216.109351     -5880.6344
   1   1.0000     -24.787352      -674.4981
   2   1.0000     -21.008693      -571.6756
   3   1.0000     -21.003392      -571.5313
   4   1.0000     -21.003390      -571.5313
   5   1.0000      -2.841332       -77.3166
   6   1.0000      -1.766955       -48.0813
   7   1.0000      -1.754866       -47.7523
   8   1.0000      -1.754863       -47.7523
   9   1.0000      -0.345114        -9.3910
  10   0.0000      -0.085360        -2.3228
  11   0.0000      -0.052534        -1.4295
  12   0.0000      -0.045040        -1.2256
  13   0.0000      -0.011054        -0.3008
  14   0.0000      -0.006565        -0.1787

MULLIKEN ATOMIC CHARGES AND SPIN POPULATIONS
--------------------------------------------
   0 Cr:    0.276776    5.013464
   1 H :   -0.276776   -0.013464
Sum of atomic charges         :   -0.0000000

LOEWDIN ATOMIC CHARGES AND SPIN POPULATIONS
-------------------------------------------
   0 Cr:    0.603133    4.836978
   1 H :   -0.603133    0.163022

  Mayer bond orders larger than 0.100000
B(  0-Cr,  1-H ) :   0.9975

FINAL SINGLE POINT ENERGY     -1044.954438591586

DIPOLE MOMENT
-------------
                                X             Y             Z
Electronic contribution:     -0.00004      -0.00004      -2.99104
Nuclear contribution   :      0.00000       0.00000       1.64492
                        -----------------------------------------
Total Dipole Moment    :     -0.00004      -0.00004      -1.34613
                        -----------------------------------------
Magnitude (a.u.)       :      1.34613
Magnitude (Debye)      :      3.42158

Rotational constants in cm-1:     0.000000     6.192127     6.192127
Rotational constants in MHz :     0.000000 185635.310837 185635.310837

                             ****ORCA TERMINATED NORMALLY****
TOTAL RUN TIME: 0 days 0 hours 16 minutes 26 seconds 224 msec
