                         Program Version 4.2.0 -  RELEASE  -
|  1> #
|  2> # 21_CrCl wb97m-v/aug-cc-pvtz
|  3> #
|  4> ! wb97m-v aug-cc-pvtz def2/jk grid4 nofinalgrid
|  5>
|  6> *xyz 0 6
|  7>   Cr  0.00000000000000      0.00000000000000     -0.09885250745251
|  8>   Cl  0.00000000000000      0.00000000000000      2.09885250745250
|  9> *
| 10>
| 11> %pal
| 12> nprocs 24
| 13> end
| 14>
| 15>
| 16>                          ****END OF INPUT****

CARTESIAN COORDINATES (ANGSTROEM)
---------------------------------
  Cr     0.000000    0.000000   -0.098853
  Cl     0.000000    0.000000    2.098853

 Total Charge           Charge          ....    0
 Multiplicity           Mult            ....    6
 Number of Electrons    NEL             ....   41
 Basis Dimension        Dim             ....  143

ORBITAL ENERGIES
----------------
                 SPIN UP ORBITALS
  NO   OCC          E(Eh)            E(eV)
   0   1.0000    -216.135420     -5881.3438
   1   1.0000    -101.830911     -2770.9600
   2   1.0000     -24.883849      -677.1240
   3   1.0000     -21.087666      -573.8246
   4   1.0000     -21.087665      -573.8246
   5   1.0000     -21.086140      -573.7830
   6   1.0000      -9.588854      -260.9260
   7   1.0000      -7.289247      -198.3505
   8   1.0000      -7.287751      -198.3098
   9   1.0000      -7.287751      -198.3098
  10   1.0000      -3.040980       -82.7493
  11   1.0000      -1.983099       -53.9629
  12   1.0000      -1.978740       -53.8442
  13   1.0000      -1.978740       -53.8442
  14   1.0000      -0.872391       -23.7390
  15   1.0000      -0.426364       -11.6020
  16   1.0000      -0.404307       -11.0017
  17   1.0000      -0.404307       -11.0017
  18   1.0000      -0.341808        -9.3011
  19   1.0000      -0.341808        -9.3011
  20   1.0000      -0.323773        -8.8103
  21   1.0000      -0.323773        -8.8103
  22   1.0000      -0.305848        -8.3226
  23   0.0000      -0.038449        -1.0463
  24   0.0000       0.004846         0.1319
  25   0.0000       0.004849         0.1319
  26   0.0000       0.017829         0.4852
  27   0.0000       0.019544         0.5318

                 SPIN DOWN ORBITALS
  NO   OCC          E(Eh)            E(eV)
   0   1.0000    -216.134107     -5881.3080
   1   1.0000    -101.830867     -2770.9588
   2   1.0000     -24.810703      -675.1335
   3   1.0000     -21.031498      -572.2962
   4   1.0000     -21.027262      -572.1809
   5   1.0000     -21.027262      -572.1809
   6   1.0000      -9.588822      -260.9251
   7   1.0000      -7.290080      -198.3732
   8   1.0000      -7.287208      -198.2950
   9   1.0000      -7.287208      -198.2950
  10   1.0000      -2.866911       -78.0126
  11   1.0000      -1.794546       -48.8321
  12   1.0000      -1.780663       -48.4543
  13   1.0000      -1.780663       -48.4543
  14   1.0000      -0.869815       -23.6689
  15   1.0000      -0.411873       -11.2076
  16   1.0000      -0.382474       -10.4076
  17   1.0000      -0.382474       -10.4076
  18   0.0000      -0.155468        -4.2305
  19   0.0000      -0.115562        -3.1446
  20   0.0000      -0.104173        -2.8347
  21   0.0000      -0.067406        -1.8342
  22   0.0000      -0.033793        -0.9195

MULLIKEN ATOMIC CHARGES AND SPIN POPULATIONS
--------------------------------------------
   0 Cr:    0.399732    4.963161
   1 Cl:   -0.399732    0.036839
Sum of atomic charges         :   -0.0000000

LOEWDIN ATOMIC CHARGES AND SPIN POPULATIONS
-------------------------------------------
   0 Cr:    0.016131    4.852359
   1 Cl:   -0.016131    0.147641

  Mayer bond orders larger than 0.100000
B(  0-Cr,  1-Cl) :   1.0772

FINAL SINGLE POINT ENERGY     -1504.653622901478

DIPOLE MOMENT
-------------
                                X             Y             Z
Electronic contribution:     -0.00000      -0.00000      -3.75832
Nuclear contribution   :      0.00000       0.00000       1.57322
                        -----------------------------------------
Total Dipole Moment    :     -0.00000      -0.00000      -2.18511
                        -----------------------------------------
Magnitude (a.u.)       :      2.18511
Magnitude (Debye)      :      5.55410

Rotational constants in cm-1:     0.000000     0.165568     0.165568
Rotational constants in MHz :     0.000000  4963.604658  4963.604658

                             ****ORCA TERMINATED NORMALLY****
TOTAL RUN TIME: 0 days 0 hours 5 minutes 3 seconds 785 msec
