                         Program Version 4.2.0 -  RELEASE  -
|  1> #
|  2> # 25_MnH wb97m-v/aug-cc-pvtz
|  3> #
|  4> ! wb97m-v aug-cc-pvtz def2/jk grid4 nofinalgrid
|  5>
|  6> *xyz 0 7
|  7>   Mn  0.00000000000000      0.00000000000000      0.13923463274405
|  8>   H   0.00000000000000      0.00000000000000      1.86076536725595
|  9> *
| 10>
| 11> %pal
| 12> nprocs 24
| 13> end
| 14>
| 15>
| 16>                          ****END OF INPUT****

CARTESIAN COORDINATES (ANGSTROEM)
---------------------------------
  Mn     0.000000    0.000000    0.139235
  H      0.000000    0.000000    1.860765

 Total Charge           Charge          ....    0
 Multiplicity           Mult            ....    7
 Number of Electrons    NEL             ....   26
 Basis Dimension        Dim             ....  116

ORBITAL ENERGIES
----------------
                 SPIN UP ORBITALS
  NO   OCC          E(Eh)            E(eV)
   0   1.0000    -236.007977     -6422.1035
   1   1.0000     -27.638718      -752.0878
   2   1.0000     -23.620203      -642.7384
   3   1.0000     -23.620203      -642.7384
   4   1.0000     -23.618450      -642.6907
   5   1.0000      -3.472751       -94.4984
   6   1.0000      -2.321295       -63.1657
   7   1.0000      -2.321295       -63.1657
   8   1.0000      -2.313778       -62.9611
   9   1.0000      -0.511965       -13.9313
  10   1.0000      -0.500716       -13.6252
  11   1.0000      -0.500716       -13.6252
  12   1.0000      -0.494786       -13.4638
  13   1.0000      -0.494786       -13.4638
  14   1.0000      -0.391484       -10.6528
  15   1.0000      -0.251993        -6.8571
  16   0.0000      -0.003874        -0.1054
  17   0.0000      -0.003873        -0.1054
  18   0.0000       0.009625         0.2619
  19   0.0000       0.019420         0.5284
  20   0.0000       0.043245         1.1768

                 SPIN DOWN ORBITALS
  NO   OCC          E(Eh)            E(eV)
   0   1.0000    -236.004944     -6422.0210
   1   1.0000     -27.541023      -749.4293
   2   1.0000     -23.541793      -640.6047
   3   1.0000     -23.541793      -640.6047
   4   1.0000     -23.540503      -640.5697
   5   1.0000      -3.256744       -88.6205
   6   1.0000      -2.083069       -56.6832
   7   1.0000      -2.083069       -56.6832
   8   1.0000      -2.074332       -56.4454
   9   1.0000      -0.381838       -10.3903
  10   0.0000      -0.136668        -3.7189
  11   0.0000      -0.086647        -2.3578
  12   0.0000      -0.082810        -2.2534
  13   0.0000      -0.050216        -1.3664
  14   0.0000      -0.019174        -0.5217

MULLIKEN ATOMIC CHARGES AND SPIN POPULATIONS
--------------------------------------------
   0 Mn:    0.239750    5.874785
   1 H :   -0.239750    0.125215
Sum of atomic charges         :    0.0000000

LOEWDIN ATOMIC CHARGES AND SPIN POPULATIONS
-------------------------------------------
   0 Mn:    0.559239    5.771873
   1 H :   -0.559239    0.228127

  Mayer bond orders larger than 0.100000
B(  0-Mn,  1-H ) :   0.9363

FINAL SINGLE POINT ENERGY     -1151.480881395488

DIPOLE MOMENT
-------------
                                X             Y             Z
Electronic contribution:     -0.00001       0.00001      -2.01416
Nuclear contribution   :      0.00000       0.00000       1.72930
                        -----------------------------------------
Total Dipole Moment    :     -0.00001       0.00001      -0.28486
                        -----------------------------------------
Magnitude (a.u.)       :      0.28486
Magnitude (Debye)      :      0.72407

Rotational constants in cm-1:     0.000000     5.746491     5.746491
Rotational constants in MHz :     0.000000 172275.461427 172275.461427

                             ****ORCA TERMINATED NORMALLY****
TOTAL RUN TIME: 0 days 0 hours 3 minutes 22 seconds 945 msec
