                         Program Version 4.2.0 -  RELEASE  -
|  1> #
|  2> # 26_MnF wb97m-v/aug-cc-pvtz
|  3> #
|  4> ! wb97m-v aug-cc-pvtz def2/jk grid4 nofinalgrid slowconv
|  5>
|  6> *xyz 0 7
|  7>   Mn  0.00000000000000      0.00000000000000      0.08590077209256
|  8>   F   0.00000000000000      0.00000000000000      1.91409922790744
|  9> *
| 10>
| 11> %scf
| 12> maxiter 300
| 13> diismaxeq 15
| 14> directresetfreq 1
| 15> end
| 16>
| 17> %pal
| 18> nprocs 24
| 19> end
| 20>
| 21>
| 22>                          ****END OF INPUT****

CARTESIAN COORDINATES (ANGSTROEM)
---------------------------------
  Mn     0.000000    0.000000    0.085901
  F      0.000000    0.000000    1.914099

 Total Charge           Charge          ....    0
 Multiplicity           Mult            ....    7
 Number of Electrons    NEL             ....   34
 Basis Dimension        Dim             ....  139

ORBITAL ENERGIES
----------------
                 SPIN UP ORBITALS
  NO   OCC          E(Eh)            E(eV)
   0   1.0000    -236.004324     -6422.0042
   1   1.0000     -27.633057      -751.9337
   2   1.0000     -24.836692      -675.8407
   3   1.0000     -23.615164      -642.6013
   4   1.0000     -23.615164      -642.6013
   5   1.0000     -23.611988      -642.5149
   6   1.0000      -3.469599       -94.4126
   7   1.0000      -2.319114       -63.1063
   8   1.0000      -2.319114       -63.1063
   9   1.0000      -2.310773       -62.8793
  10   1.0000      -1.232893       -33.5487
  11   1.0000      -0.557820       -15.1791
  12   1.0000      -0.525785       -14.3073
  13   1.0000      -0.525784       -14.3073
  14   1.0000      -0.500083       -13.6080
  15   1.0000      -0.500083       -13.6079
  16   1.0000      -0.443534       -12.0692
  17   1.0000      -0.443534       -12.0692
  18   1.0000      -0.431601       -11.7445
  19   1.0000      -0.284446        -7.7402
  20   0.0000       0.000299         0.0081
  21   0.0000       0.000300         0.0082
  22   0.0000       0.010320         0.2808
  23   0.0000       0.017740         0.4827
  24   0.0000       0.047632         1.2961

                 SPIN DOWN ORBITALS
  NO   OCC          E(Eh)            E(eV)
   0   1.0000    -236.001050     -6421.9151
   1   1.0000     -27.535260      -749.2725
   2   1.0000     -24.830948      -675.6845
   3   1.0000     -23.536796      -640.4688
   4   1.0000     -23.536796      -640.4688
   5   1.0000     -23.533999      -640.3927
   6   1.0000      -3.254083       -88.5481
   7   1.0000      -2.081463       -56.6395
   8   1.0000      -2.081463       -56.6395
   9   1.0000      -2.074198       -56.4418
  10   1.0000      -1.218797       -33.1652
  11   1.0000      -0.499304       -13.5868
  12   1.0000      -0.472432       -12.8555
  13   1.0000      -0.472431       -12.8555
  14   0.0000      -0.297390        -8.0924
  15   0.0000      -0.214303        -5.8315
  16   0.0000      -0.214195        -5.8285
  17   0.0000      -0.125975        -3.4280
  18   0.0000      -0.075375        -2.0511

MULLIKEN ATOMIC CHARGES AND SPIN POPULATIONS
--------------------------------------------
   0 Mn:    0.594631    5.852078
   1 F :   -0.594631    0.147922
Sum of atomic charges         :    0.0000000

LOEWDIN ATOMIC CHARGES AND SPIN POPULATIONS
-------------------------------------------
   0 Mn:    0.439459    5.751431
   1 F :   -0.439459    0.248569

  Mayer bond orders larger than 0.100000
B(  0-Mn,  1-F ) :   0.7257

FINAL SINGLE POINT ENERGY     -1250.831333276898

DIPOLE MOMENT
-------------
                                X             Y             Z
Electronic contribution:     -0.00007       0.00004      -1.80985
Nuclear contribution   :      0.00000       0.00000       0.91162
                        -----------------------------------------
Total Dipole Moment    :     -0.00007       0.00004      -0.89823
                        -----------------------------------------
Magnitude (a.u.)       :      0.89823
Magnitude (Debye)      :      2.28313

Rotational constants in cm-1:     0.000000     0.357290     0.357290
Rotational constants in MHz :     0.000000 10711.297675 10711.297675

                             ****ORCA TERMINATED NORMALLY****
TOTAL RUN TIME: 0 days 0 hours 9 minutes 49 seconds 813 msec
