                         Program Version 4.2.0 -  RELEASE  -
|  1> #
|  2> # 27_MnCl wb97m-v/aug-cc-pvtz
|  3> #
|  4> ! wb97m-v aug-cc-pvtz def2/jk grid4 nofinalgrid
|  5>
|  6> *xyz 0 7
|  7>   Mn  0.00000000000000      0.00000000000000     -0.11585879372688
|  8>   Cl  0.00000000000000      0.00000000000000      2.11585879372688
|  9> *
| 10>
| 11> %pal
| 12> nprocs 24
| 13> end
| 14>
| 15>
| 16>                          ****END OF INPUT****

CARTESIAN COORDINATES (ANGSTROEM)
---------------------------------
  Mn     0.000000    0.000000   -0.115859
  Cl     0.000000    0.000000    2.115859

 Total Charge           Charge          ....    0
 Multiplicity           Mult            ....    7
 Number of Electrons    NEL             ....   42
 Basis Dimension        Dim             ....  143

ORBITAL ENERGIES
----------------
                 SPIN UP ORBITALS
  NO   OCC          E(Eh)            E(eV)
   0   1.0000    -236.023925     -6422.5375
   1   1.0000    -101.857793     -2771.6915
   2   1.0000     -27.652982      -752.4759
   3   1.0000     -23.634660      -643.1318
   4   1.0000     -23.634660      -643.1318
   5   1.0000     -23.632609      -643.0760
   6   1.0000      -9.615850      -261.6606
   7   1.0000      -7.317066      -199.1075
   8   1.0000      -7.314826      -199.0465
   9   1.0000      -7.314823      -199.0465
  10   1.0000      -3.488436       -94.9252
  11   1.0000      -2.336865       -63.5893
  12   1.0000      -2.336865       -63.5893
  13   1.0000      -2.330672       -63.4208
  14   1.0000      -0.905085       -24.6286
  15   1.0000      -0.532155       -14.4807
  16   1.0000      -0.519423       -14.1342
  17   1.0000      -0.519423       -14.1342
  18   1.0000      -0.516300       -14.0492
  19   1.0000      -0.516298       -14.0492
  20   1.0000      -0.430239       -11.7074
  21   1.0000      -0.400758       -10.9052
  22   1.0000      -0.400752       -10.9050
  23   1.0000      -0.284689        -7.7468
  24   0.0000      -0.001370        -0.0373
  25   0.0000      -0.001368        -0.0372
  26   0.0000       0.009158         0.2492
  27   0.0000       0.015432         0.4199
  28   0.0000       0.041738         1.1358

                 SPIN DOWN ORBITALS
  NO   OCC          E(Eh)            E(eV)
   0   1.0000    -236.020726     -6422.4505
   1   1.0000    -101.856477     -2771.6557
   2   1.0000     -27.554981      -749.8091
   3   1.0000     -23.556166      -640.9959
   4   1.0000     -23.556166      -640.9959
   5   1.0000     -23.554451      -640.9492
   6   1.0000      -9.614567      -261.6257
   7   1.0000      -7.314443      -199.0361
   8   1.0000      -7.313086      -198.9992
   9   1.0000      -7.313085      -198.9991
  10   1.0000      -3.272127       -89.0391
  11   1.0000      -2.098271       -57.0969
  12   1.0000      -2.098271       -57.0968
  13   1.0000      -2.092484       -56.9394
  14   1.0000      -0.896035       -24.3824
  15   1.0000      -0.445114       -12.1122
  16   1.0000      -0.408377       -11.1125
  17   1.0000      -0.408366       -11.1122
  18   0.0000      -0.232996        -6.3402
  19   0.0000      -0.163788        -4.4569
  20   0.0000      -0.159745        -4.3469
  21   0.0000      -0.144698        -3.9374
  22   0.0000      -0.076648        -2.0857

MULLIKEN ATOMIC CHARGES AND SPIN POPULATIONS
--------------------------------------------
   0 Mn:    0.435960    5.850762
   1 Cl:   -0.435960    0.149238
Sum of atomic charges         :   -0.0000000

LOEWDIN ATOMIC CHARGES AND SPIN POPULATIONS
-------------------------------------------
   0 Mn:    0.100505    5.742108
   1 Cl:   -0.100505    0.257892

  Mayer bond orders larger than 0.100000
B(  0-Mn,  1-Cl) :   0.9541

FINAL SINGLE POINT ENERGY     -1611.187743979917

DIPOLE MOMENT
-------------
                                X             Y             Z
Electronic contribution:     -0.00024       0.00003      -3.22721
Nuclear contribution   :      0.00000       0.00000       2.22337
                        -----------------------------------------
Total Dipole Moment    :     -0.00024       0.00003      -1.00384
                        -----------------------------------------
Magnitude (a.u.)       :      1.00384
Magnitude (Debye)      :      2.55157

Rotational constants in cm-1:     0.000000     0.157077     0.157077
Rotational constants in MHz :     0.000000  4709.038991  4709.038991

                             ****ORCA TERMINATED NORMALLY****
TOTAL RUN TIME: 0 days 0 hours 8 minutes 3 seconds 798 msec
