                         Program Version 4.2.0 -  RELEASE  -
|  1> #
|  2> # 29_MnO wb97m-v/aug-cc-pvtz
|  3> #
|  4> ! wb97m-v aug-cc-pvtz def2/jk grid4 nofinalgrid
|  5>
|  6> *xyz 0 6
|  7>   Mn  0.00000000000000      0.00000000000000      0.18548662877309
|  8>   O   0.00000000000000      0.00000000000000      1.81451337122691
|  9> *
| 10>
| 11> %pal
| 12> nprocs 24
| 13> end
| 14>
| 15>
| 16>                          ****END OF INPUT****

CARTESIAN COORDINATES (ANGSTROEM)
---------------------------------
  Mn     0.000000    0.000000    0.185487
  O      0.000000    0.000000    1.814513

 Total Charge           Charge          ....    0
 Multiplicity           Mult            ....    6
 Number of Electrons    NEL             ....   33
 Basis Dimension        Dim             ....  139

ORBITAL ENERGIES
----------------
                 SPIN UP ORBITALS
  NO   OCC          E(Eh)            E(eV)
   0   1.0000    -235.985481     -6421.4914
   1   1.0000     -27.609069      -751.2810
   2   1.0000     -23.593394      -642.0089
   3   1.0000     -23.593389      -642.0087
   4   1.0000     -23.587364      -641.8448
   5   1.0000     -19.288291      -524.8611
   6   1.0000      -3.433483       -93.4298
   7   1.0000      -2.282197       -62.1017
   8   1.0000      -2.282186       -62.1014
   9   1.0000      -2.275987       -61.9328
  10   1.0000      -0.983881       -26.7728
  11   1.0000      -0.494506       -13.4562
  12   1.0000      -0.494502       -13.4561
  13   1.0000      -0.474394       -12.9089
  14   1.0000      -0.465638       -12.6707
  15   1.0000      -0.465638       -12.6707
  16   1.0000      -0.336481        -9.1561
  17   1.0000      -0.336467        -9.1557
  18   1.0000      -0.325562        -8.8590
  19   0.0000      -0.039712        -1.0806
  20   0.0000       0.006280         0.1709
  21   0.0000       0.006294         0.1713
  22   0.0000       0.015083         0.4104
  23   0.0000       0.023158         0.6301

                 SPIN DOWN ORBITALS
  NO   OCC          E(Eh)            E(eV)
   0   1.0000    -235.982755     -6421.4172
   1   1.0000     -27.523982      -748.9656
   2   1.0000     -23.526721      -640.1946
   3   1.0000     -23.521786      -640.0603
   4   1.0000     -23.521785      -640.0603
   5   1.0000     -19.284706      -524.7635
   6   1.0000      -3.247235       -88.3618
   7   1.0000      -2.088169       -56.8220
   8   1.0000      -2.069506       -56.3141
   9   1.0000      -2.069505       -56.3141
  10   1.0000      -0.969665       -26.3859
  11   1.0000      -0.412313       -11.2196
  12   1.0000      -0.379718       -10.3327
  13   1.0000      -0.379704       -10.3323
  14   0.0000      -0.160031        -4.3547
  15   0.0000      -0.109491        -2.9794
  16   0.0000      -0.108250        -2.9456
  17   0.0000      -0.046784        -1.2731
  18   0.0000      -0.030945        -0.8421

MULLIKEN ATOMIC CHARGES AND SPIN POPULATIONS
--------------------------------------------
   0 Mn:    0.647481    4.784427
   1 O :   -0.647481    0.215573
Sum of atomic charges         :   -0.0000000

LOEWDIN ATOMIC CHARGES AND SPIN POPULATIONS
-------------------------------------------
   0 Mn:    0.665616    4.700355
   1 O :   -0.665616    0.299645

  Mayer bond orders larger than 0.100000
B(  0-Mn,  1-O ) :   2.0274

FINAL SINGLE POINT ENERGY     -1226.137389290508

DIPOLE MOMENT
-------------
                                X             Y             Z
Electronic contribution:      0.00033      -0.00065      -3.92915
Nuclear contribution   :      0.00000       0.00000       1.71606
                        -----------------------------------------
Total Dipole Moment    :      0.00033      -0.00065      -2.21308
                        -----------------------------------------
Magnitude (a.u.)       :      2.21308
Magnitude (Debye)      :      5.62521

Rotational constants in cm-1:     0.000000     0.512677     0.512677
Rotational constants in MHz :     0.000000 15369.677147 15369.677147

                             ****ORCA TERMINATED NORMALLY****
TOTAL RUN TIME: 0 days 0 hours 15 minutes 48 seconds 51 msec
