                         Program Version 4.2.0 -  RELEASE  -
|  1> #
|  2> # 33_FeCl wb97m-v/aug-cc-pvtz
|  3> #
|  4> ! wb97m-v aug-cc-pvtz def2/jk grid4 nofinalgrid
|  5>
|  6> *xyz 0 6
|  7>   Fe  0.00000000000000      0.00000000000000     -0.08894892709089
|  8>   Cl  0.00000000000000      0.00000000000000      2.08894892709089
|  9> *
| 10>
| 11> %pal
| 12> nprocs 24
| 13> end
| 14>
| 15>
| 16>                          ****END OF INPUT****

CARTESIAN COORDINATES (ANGSTROEM)
---------------------------------
  Fe     0.000000    0.000000   -0.088949
  Cl     0.000000    0.000000    2.088949

 Total Charge           Charge          ....    0
 Multiplicity           Mult            ....    6
 Number of Electrons    NEL             ....   43
 Basis Dimension        Dim             ....  143

ORBITAL ENERGIES
----------------
                 SPIN UP ORBITALS
  NO   OCC          E(Eh)            E(eV)
   0   1.0000    -256.659585     -6984.0624
   1   1.0000    -101.868822     -2771.9916
   2   1.0000     -30.390711      -826.9733
   3   1.0000     -26.171083      -712.1514
   4   1.0000     -26.142681      -711.3785
   5   1.0000     -26.142637      -711.3773
   6   1.0000      -9.626918      -261.9618
   7   1.0000      -7.328326      -199.4139
   8   1.0000      -7.325916      -199.3483
   9   1.0000      -7.325915      -199.3483
  10   1.0000      -3.780466      -102.8717
  11   1.0000      -2.568775       -69.8999
  12   1.0000      -2.516311       -68.4723
  13   1.0000      -2.516220       -68.4698
  14   1.0000      -0.917865       -24.9764
  15   1.0000      -0.574476       -15.6323
  16   1.0000      -0.558588       -15.2000
  17   1.0000      -0.558550       -15.1989
  18   1.0000      -0.529881       -14.4188
  19   1.0000      -0.503474       -13.7002
  20   1.0000      -0.450087       -12.2475
  21   1.0000      -0.412536       -11.2257
  22   1.0000      -0.412530       -11.2255
  23   1.0000      -0.288904        -7.8615
  24   0.0000       0.002545         0.0693
  25   0.0000       0.002550         0.0694
  26   0.0000       0.010652         0.2898
  27   0.0000       0.015905         0.4328
  28   0.0000       0.046565         1.2671

                 SPIN DOWN ORBITALS
  NO   OCC          E(Eh)            E(eV)
   0   1.0000    -256.656463     -6983.9774
   1   1.0000    -101.867211     -2771.9477
   2   1.0000     -30.300352      -824.5145
   3   1.0000     -26.087812      -709.8855
   4   1.0000     -26.076807      -709.5860
   5   1.0000     -26.076791      -709.5856
   6   1.0000      -9.625353      -261.9192
   7   1.0000      -7.325209      -199.3291
   8   1.0000      -7.323733      -199.2889
   9   1.0000      -7.323733      -199.2889
  10   1.0000      -3.596182       -97.8571
  11   1.0000      -2.332435       -63.4688
  12   1.0000      -2.332419       -63.4683
  13   1.0000      -2.331210       -63.4355
  14   1.0000      -0.907389       -24.6913
  15   1.0000      -0.461779       -12.5656
  16   1.0000      -0.418095       -11.3770
  17   1.0000      -0.418068       -11.3762
  18   1.0000      -0.407981       -11.1017
  19   0.0000      -0.233310        -6.3487
  20   0.0000      -0.168797        -4.5932
  21   0.0000      -0.156499        -4.2586
  22   0.0000      -0.114485        -3.1153
  23   0.0000      -0.088165        -2.3991

MULLIKEN ATOMIC CHARGES AND SPIN POPULATIONS
--------------------------------------------
   0 Fe:    0.398545    4.796808
   1 Cl:   -0.398545    0.203192
Sum of atomic charges         :   -0.0000000

LOEWDIN ATOMIC CHARGES AND SPIN POPULATIONS
-------------------------------------------
   0 Fe:    0.072711    4.716389
   1 Cl:   -0.072711    0.283611

  Mayer bond orders larger than 0.100000
B(  0-Fe,  1-Cl) :   1.0115

FINAL SINGLE POINT ENERGY     -1723.870666440344

DIPOLE MOMENT
-------------
                                X             Y             Z
Electronic contribution:     -0.00029       0.00043      -2.07054
Nuclear contribution   :      0.00000       0.00000       1.24736
                        -----------------------------------------
Total Dipole Moment    :     -0.00029       0.00043      -0.82318
                        -----------------------------------------
Magnitude (a.u.)       :      0.82318
Magnitude (Debye)      :      2.09236

Rotational constants in cm-1:     0.000000     0.163882     0.163882
Rotational constants in MHz :     0.000000  4913.053230  4913.053230

                             ****ORCA TERMINATED NORMALLY****
TOTAL RUN TIME: 0 days 0 hours 14 minutes 14 seconds 907 msec
