                         Program Version 4.2.0 -  RELEASE  -
|  1> #
|  2> # 35_FeO wb97m-v/aug-cc-pvtz
|  3> #
|  4> ! wb97m-v aug-cc-pvtz def2/jk grid4 nofinalgrid
|  5>
|  6> *xyz 0 5
|  7>   Fe  0.00000000000000      0.00000000000000      0.19611340956582
|  8>   O   0.00000000000000      0.00000000000000      1.80388659043418
|  9> *
| 10>
| 11> %pal
| 12> nprocs 24
| 13> end
| 14>
| 15>
| 16>                          ****END OF INPUT****

CARTESIAN COORDINATES (ANGSTROEM)
---------------------------------
  Fe     0.000000    0.000000    0.196113
  O      0.000000    0.000000    1.803887

 Total Charge           Charge          ....    0
 Multiplicity           Mult            ....    5
 Number of Electrons    NEL             ....   34
 Basis Dimension        Dim             ....  139

ORBITAL ENERGIES
----------------
                 SPIN UP ORBITALS
  NO   OCC          E(Eh)            E(eV)
   0   1.0000    -256.584315     -6982.0142
   1   1.0000     -30.303383      -824.5970
   2   1.0000     -26.079901      -709.6702
   3   1.0000     -26.060529      -709.1430
   4   1.0000     -26.060529      -709.1430
   5   1.0000     -19.291156      -524.9390
   6   1.0000      -3.686301      -100.3094
   7   1.0000      -2.470732       -67.2320
   8   1.0000      -2.426146       -66.0188
   9   1.0000      -2.426146       -66.0188
  10   1.0000      -0.992129       -26.9972
  11   1.0000      -0.498143       -13.5552
  12   1.0000      -0.498143       -13.5552
  13   1.0000      -0.492116       -13.3912
  14   1.0000      -0.448574       -12.2063
  15   1.0000      -0.422764       -11.5040
  16   1.0000      -0.342111        -9.3093
  17   1.0000      -0.342111        -9.3093
  18   1.0000      -0.334695        -9.1075
  19   0.0000      -0.047242        -1.2855
  20   0.0000       0.009131         0.2485
  21   0.0000       0.009131         0.2485
  22   0.0000       0.016666         0.4535
  23   0.0000       0.024830         0.6757

                 SPIN DOWN ORBITALS
  NO   OCC          E(Eh)            E(eV)
   0   1.0000    -256.581900     -6981.9485
   1   1.0000     -30.229062      -822.5746
   2   1.0000     -26.017200      -707.9640
   3   1.0000     -26.003527      -707.5919
   4   1.0000     -26.003527      -707.5919
   5   1.0000     -19.281300      -524.6709
   6   1.0000      -3.536549       -96.2344
   7   1.0000      -2.288427       -62.2713
   8   1.0000      -2.271921       -61.8221
   9   1.0000      -2.271921       -61.8221
  10   1.0000      -0.964055       -26.2333
  11   1.0000      -0.410740       -11.1768
  12   1.0000      -0.374727       -10.1969
  13   1.0000      -0.374727       -10.1969
  14   1.0000      -0.346657        -9.4330
  15   0.0000      -0.119822        -3.2605
  16   0.0000      -0.054925        -1.4946
  17   0.0000      -0.054388        -1.4800
  18   0.0000      -0.013945        -0.3795
  19   0.0000       0.009535         0.2595

MULLIKEN ATOMIC CHARGES AND SPIN POPULATIONS
--------------------------------------------
   0 Fe:    0.656254    3.544334
   1 O :   -0.656254    0.455666
Sum of atomic charges         :   -0.0000000

LOEWDIN ATOMIC CHARGES AND SPIN POPULATIONS
-------------------------------------------
   0 Fe:    0.641949    3.523822
   1 O :   -0.641949    0.476178

  Mayer bond orders larger than 0.100000
B(  0-Fe,  1-O ) :   2.0153

FINAL SINGLE POINT ENERGY     -1338.835281851700

DIPOLE MOMENT
-------------
                                X             Y             Z
Electronic contribution:      0.00000      -0.00000      -3.62583
Nuclear contribution   :      0.00000       0.00000       1.30353
                        -----------------------------------------
Total Dipole Moment    :      0.00000      -0.00000      -2.32230
                        -----------------------------------------
Magnitude (a.u.)       :      2.32230
Magnitude (Debye)      :      5.90282

Rotational constants in cm-1:     0.000000     0.524387     0.524387
Rotational constants in MHz :     0.000000 15720.731712 15720.731712

                             ****ORCA TERMINATED NORMALLY****
TOTAL RUN TIME: 0 days 0 hours 4 minutes 32 seconds 806 msec
