                         Program Version 4.2.0 -  RELEASE  -
|  1> #
|  2> # 36_FeS wb97m-v/aug-cc-pvtz
|  3> #
|  4> ! wb97m-v aug-cc-pvtz def2/jk grid4 nofinalgrid
|  5>
|  6> *xyz 0 5
|  7>   Fe  0.00000000000000      0.00000000000000     -0.00599090985654
|  8>   S   0.00000000000000      0.00000000000000      2.00599090985654
|  9> *
| 10>
| 11> %pal
| 12> nprocs 24
| 13> end
| 14>
| 15>
| 16>                          ****END OF INPUT****

CARTESIAN COORDINATES (ANGSTROEM)
---------------------------------
  Fe     0.000000    0.000000   -0.005991
  S      0.000000    0.000000    2.005991

 Total Charge           Charge          ....    0
 Multiplicity           Mult            ....    5
 Number of Electrons    NEL             ....   42
 Basis Dimension        Dim             ....  143

ORBITAL ENERGIES
----------------
                 SPIN UP ORBITALS
  NO   OCC          E(Eh)            E(eV)
   0   1.0000    -256.600802     -6982.4628
   1   1.0000     -89.150699     -2425.9139
   2   1.0000     -30.319258      -825.0290
   3   1.0000     -26.097322      -710.1442
   4   1.0000     -26.075380      -709.5472
   5   1.0000     -26.075221      -709.5428
   6   1.0000      -8.064489      -219.4459
   7   1.0000      -5.972009      -162.5066
   8   1.0000      -5.971658      -162.4971
   9   1.0000      -5.971618      -162.4960
  10   1.0000      -3.706371      -100.8555
  11   1.0000      -2.492220       -67.8168
  12   1.0000      -2.445918       -66.5568
  13   1.0000      -2.445589       -66.5478
  14   1.0000      -0.751773       -20.4568
  15   1.0000      -0.496237       -13.5033
  16   1.0000      -0.495643       -13.4871
  17   1.0000      -0.495517       -13.4837
  18   1.0000      -0.467108       -12.7107
  19   1.0000      -0.441383       -12.0106
  20   1.0000      -0.345307        -9.3963
  21   1.0000      -0.308360        -8.3909
  22   1.0000      -0.308277        -8.3886
  23   0.0000      -0.061268        -1.6672
  24   0.0000       0.006859         0.1866
  25   0.0000       0.006879         0.1872
  26   0.0000       0.012900         0.3510
  27   0.0000       0.021063         0.5731

                 SPIN DOWN ORBITALS
  NO   OCC          E(Eh)            E(eV)
   0   1.0000    -256.598855     -6982.4098
   1   1.0000     -89.148787     -2425.8618
   2   1.0000     -30.241487      -822.9127
   3   1.0000     -26.029213      -708.2909
   4   1.0000     -26.017004      -707.9587
   5   1.0000     -26.016954      -707.9573
   6   1.0000      -8.062603      -219.3946
   7   1.0000      -5.971540      -162.4939
   8   1.0000      -5.967181      -162.3753
   9   1.0000      -5.967175      -162.3751
  10   1.0000      -3.548438       -96.5579
  11   1.0000      -2.293309       -62.4041
  12   1.0000      -2.285261       -62.1851
  13   1.0000      -2.285164       -62.1825
  14   1.0000      -0.734547       -19.9881
  15   1.0000      -0.368618       -10.0306
  16   1.0000      -0.361659        -9.8412
  17   1.0000      -0.325563        -8.8590
  18   1.0000      -0.325474        -8.8566
  19   0.0000      -0.088743        -2.4148
  20   0.0000      -0.032337        -0.8799
  21   0.0000      -0.031618        -0.8604
  22   0.0000      -0.017684        -0.4812
  23   0.0000       0.003012         0.0820

MULLIKEN ATOMIC CHARGES AND SPIN POPULATIONS
--------------------------------------------
   0 Fe:    0.320909    3.513960
   1 S :   -0.320909    0.486040
Sum of atomic charges         :    0.0000000

LOEWDIN ATOMIC CHARGES AND SPIN POPULATIONS
-------------------------------------------
   0 Fe:    0.146845    3.572340
   1 S :   -0.146845    0.427660

  Mayer bond orders larger than 0.100000
B(  0-Fe,  1-S ) :   2.2548

FINAL SINGLE POINT ENERGY     -1661.831054846539

DIPOLE MOMENT
-------------
                                X             Y             Z
Electronic contribution:      0.00000      -0.00000      -5.13067
Nuclear contribution   :      0.00000       0.00000       2.59672
                        -----------------------------------------
Total Dipole Moment    :      0.00000      -0.00000      -2.53394
                        -----------------------------------------
Magnitude (a.u.)       :      2.53394
Magnitude (Debye)      :      6.44078

Rotational constants in cm-1:     0.000000     0.204456     0.204456
Rotational constants in MHz :     0.000000  6129.444038  6129.444038

                             ****ORCA TERMINATED NORMALLY****
TOTAL RUN TIME: 0 days 0 hours 8 minutes 30 seconds 253 msec
