                         Program Version 4.2.0 -  RELEASE  -
|  1> #
|  2> # 37_CoH wb97m-v/aug-cc-pvtz
|  3> #
|  4> ! wb97m-v aug-cc-pvtz def2/jk grid4 nofinalgrid
|  5>
|  6> *xyz 0 3
|  7>   Co  0.00000000000000      0.00000000000000      0.23964953556340
|  8>   H   0.00000000000000      0.00000000000000      1.76035046443660
|  9> *
| 10>
| 11> %pal
| 12> nprocs 24
| 13> end
| 14>
| 15>
| 16>                          ****END OF INPUT****

CARTESIAN COORDINATES (ANGSTROEM)
---------------------------------
  Co     0.000000    0.000000    0.239650
  H      0.000000    0.000000    1.760350

 Total Charge           Charge          ....    0
 Multiplicity           Mult            ....    3
 Number of Electrons    NEL             ....   28
 Basis Dimension        Dim             ....  116

ORBITAL ENERGIES
----------------
                 SPIN UP ORBITALS
  NO   OCC          E(Eh)            E(eV)
   0   1.0000    -277.966159     -7563.8437
   1   1.0000     -33.019697      -898.5116
   2   1.0000     -28.565205      -777.2988
   3   1.0000     -28.565205      -777.2988
   4   1.0000     -28.563790      -777.2602
   5   1.0000      -3.852503      -104.8319
   6   1.0000      -2.513825       -68.4046
   7   1.0000      -2.513695       -68.4011
   8   1.0000      -2.513695       -68.4011
   9   1.0000      -0.411362       -11.1937
  10   1.0000      -0.377085       -10.2610
  11   1.0000      -0.351761        -9.5719
  12   1.0000      -0.351761        -9.5719
  13   1.0000      -0.349328        -9.5057
  14   1.0000      -0.313077        -8.5192
  15   0.0000      -0.019990        -0.5440
  16   0.0000       0.010922         0.2972
  17   0.0000       0.010922         0.2972
  18   0.0000       0.019867         0.5406
  19   0.0000       0.034425         0.9368

                 SPIN DOWN ORBITALS
  NO   OCC          E(Eh)            E(eV)
   0   1.0000    -277.965100     -7563.8149
   1   1.0000     -32.974104      -897.2710
   2   1.0000     -28.530966      -776.3671
   3   1.0000     -28.528060      -776.2880
   4   1.0000     -28.528060      -776.2880
   5   1.0000      -3.762777      -102.3904
   6   1.0000      -2.417256       -65.7769
   7   1.0000      -2.414311       -65.6967
   8   1.0000      -2.414311       -65.6967
   9   1.0000      -0.368863       -10.0373
  10   1.0000      -0.307027        -8.3546
  11   1.0000      -0.307027        -8.3546
  12   1.0000      -0.306035        -8.3276
  13   0.0000      -0.037478        -1.0198
  14   0.0000      -0.002848        -0.0775
  15   0.0000      -0.002848        -0.0775
  16   0.0000       0.011809         0.3213
  17   0.0000       0.022266         0.6059

MULLIKEN ATOMIC CHARGES AND SPIN POPULATIONS
--------------------------------------------
   0 Co:    0.068915    2.011133
   1 H :   -0.068915   -0.011133
Sum of atomic charges         :    0.0000000

LOEWDIN ATOMIC CHARGES AND SPIN POPULATIONS
-------------------------------------------
   0 Co:    0.610338    1.978331
   1 H :   -0.610338    0.021669

  Mayer bond orders larger than 0.100000
B(  0-Co,  1-H ) :   1.0461

FINAL SINGLE POINT ENERGY     -1383.258216823757

DIPOLE MOMENT
-------------
                                X             Y             Z
Electronic contribution:      0.00000      -0.00000      -2.79455
Nuclear contribution   :      0.00000       0.00000       1.52052
                        -----------------------------------------
Total Dipole Moment    :      0.00000      -0.00000      -1.27404
                        -----------------------------------------
Magnitude (a.u.)       :      1.27404
Magnitude (Debye)      :      3.23834

Rotational constants in cm-1:     0.000000     7.355540     7.355540
Rotational constants in MHz :     0.000000 220513.537195 220513.537195

                             ****ORCA TERMINATED NORMALLY****
TOTAL RUN TIME: 0 days 0 hours 3 minutes 24 seconds 477 msec
