                         Program Version 4.2.0 -  RELEASE  -
|  1> #
|  2> # 39_CoCl wb97m-v/aug-cc-pvtz
|  3> #
|  4> ! wb97m-v aug-cc-pvtz def2/jk grid4 nofinalgrid
|  5>
|  6> *xyz 0 3
|  7>   Co  0.00000000000000      0.00000000000000     -0.04491550120186
|  8>   Cl  0.00000000000000      0.00000000000000      2.04491550120186
|  9> *
| 10>
| 11> %pal
| 12> nprocs 24
| 13> end
| 14>
| 15>
| 16>                          ****END OF INPUT****

CARTESIAN COORDINATES (ANGSTROEM)
---------------------------------
  Co     0.000000    0.000000   -0.044916
  Cl     0.000000    0.000000    2.044916

 Total Charge           Charge          ....    0
 Multiplicity           Mult            ....    3
 Number of Electrons    NEL             ....   44
 Basis Dimension        Dim             ....  143

ORBITAL ENERGIES
----------------
                 SPIN UP ORBITALS
  NO   OCC          E(Eh)            E(eV)
   0   1.0000    -278.014686     -7565.1642
   1   1.0000    -101.837981     -2771.1523
   2   1.0000     -33.071262      -899.9148
   3   1.0000     -28.621255      -778.8240
   4   1.0000     -28.613031      -778.6002
   5   1.0000     -28.612993      -778.5991
   6   1.0000      -9.595389      -261.1038
   7   1.0000      -7.296678      -198.5527
   8   1.0000      -7.294356      -198.4895
   9   1.0000      -7.293531      -198.4671
  10   1.0000      -3.908631      -106.3592
  11   1.0000      -2.577214       -70.1296
  12   1.0000      -2.570110       -69.9363
  13   1.0000      -2.563427       -69.7544
  14   1.0000      -0.880051       -23.9474
  15   1.0000      -0.460820       -12.5395
  16   1.0000      -0.451690       -12.2911
  17   1.0000      -0.429329       -11.6826
  18   1.0000      -0.424086       -11.5400
  19   1.0000      -0.400582       -10.9004
  20   1.0000      -0.366669        -9.9776
  21   1.0000      -0.362818        -9.8728
  22   1.0000      -0.355343        -9.6694
  23   0.0000      -0.053019        -1.4427
  24   0.0000       0.008749         0.2381
  25   0.0000       0.009013         0.2453
  26   0.0000       0.019489         0.5303
  27   0.0000       0.022442         0.6107

                 SPIN DOWN ORBITALS
  NO   OCC          E(Eh)            E(eV)
   0   1.0000    -278.013854     -7565.1416
   1   1.0000    -101.837778     -2771.1468
   2   1.0000     -33.020654      -898.5377
   3   1.0000     -28.579149      -777.6782
   4   1.0000     -28.574574      -777.5537
   5   1.0000     -28.574331      -777.5471
   6   1.0000      -9.595202      -261.0987
   7   1.0000      -7.296682      -198.5528
   8   1.0000      -7.293508      -198.4664
   9   1.0000      -7.293419      -198.4640
  10   1.0000      -3.809643      -103.6657
  11   1.0000      -2.465265       -67.0833
  12   1.0000      -2.460203       -66.9455
  13   1.0000      -2.458811       -66.9076
  14   1.0000      -0.878059       -23.8932
  15   1.0000      -0.436752       -11.8846
  16   1.0000      -0.408016       -11.1027
  17   1.0000      -0.387948       -10.5566
  18   1.0000      -0.354218        -9.6388
  19   1.0000      -0.327444        -8.9102
  20   1.0000      -0.325333        -8.8528
  21   0.0000      -0.048732        -1.3261
  22   0.0000       0.000012         0.0003
  23   0.0000       0.013929         0.3790
  24   0.0000       0.015528         0.4225
  25   0.0000       0.023303         0.6341

MULLIKEN ATOMIC CHARGES AND SPIN POPULATIONS
--------------------------------------------
   0 Co:    0.492058    1.961654
   1 Cl:   -0.492058    0.038346
Sum of atomic charges         :   -0.0000000

LOEWDIN ATOMIC CHARGES AND SPIN POPULATIONS
-------------------------------------------
   0 Co:    0.080489    1.958953
   1 Cl:   -0.080489    0.041047

  Mayer bond orders larger than 0.100000
B(  0-Co,  1-Cl) :   1.0492

FINAL SINGLE POINT ENERGY     -1842.950567928744

DIPOLE MOMENT
-------------
                                X             Y             Z
Electronic contribution:     -0.00000       0.00000      -3.97909
Nuclear contribution   :      0.00000       0.00000       1.86529
                        -----------------------------------------
Total Dipole Moment    :     -0.00000       0.00000      -2.11380
                        -----------------------------------------
Magnitude (a.u.)       :      2.11380
Magnitude (Debye)      :      5.37284

Rotational constants in cm-1:     0.000000     0.174373     0.174373
Rotational constants in MHz :     0.000000  5227.567081  5227.567081

                             ****ORCA TERMINATED NORMALLY****
TOTAL RUN TIME: 0 days 0 hours 10 minutes 15 seconds 832 msec
