                         Program Version 4.2.0 -  RELEASE  -
|  1> #
|  2> # 40_CoBr wb97m-v/aug-cc-pvtz
|  3> #
|  4> ! wb97m-v aug-cc-pvtz def2/jk grid4 nofinalgrid
|  5>
|  6> *xyz 0 3
|  7>   Co  0.00000000000000      0.00000000000000     -0.10327875603907
|  8>   Br  0.00000000000000      0.00000000000000      2.10327875603907
|  9> *
| 10>
| 11> %pal
| 12> nprocs 24
| 13> end
| 14>
| 15>
| 16>                          ****END OF INPUT****

CARTESIAN COORDINATES (ANGSTROEM)
---------------------------------
  Co     0.000000    0.000000   -0.103279
  Br     0.000000    0.000000    2.103279

 Total Charge           Charge          ....    0
 Multiplicity           Mult            ....    3
 Number of Electrons    NEL             ....   62
 Basis Dimension        Dim             ....  152

ORBITAL ENERGIES
----------------
                 SPIN UP ORBITALS
  NO   OCC          E(Eh)            E(eV)
   0   1.0000    -483.468317    -13155.8417
   1   1.0000    -278.003496     -7564.8597
   2   1.0000     -62.773101     -1708.1429
   3   1.0000     -56.458873     -1536.3241
   4   1.0000     -56.458026     -1536.3010
   5   1.0000     -56.458026     -1536.3010
   6   1.0000     -33.057633      -899.5439
   7   1.0000     -28.622189      -778.8493
   8   1.0000     -28.592570      -778.0434
   9   1.0000     -28.592570      -778.0434
  10   1.0000      -8.851839      -240.8708
  11   1.0000      -6.632160      -180.4702
  12   1.0000      -6.628459      -180.3695
  13   1.0000      -6.628459      -180.3695
  14   1.0000      -3.895256      -105.9953
  15   1.0000      -2.715030       -73.8797
  16   1.0000      -2.713708       -73.8438
  17   1.0000      -2.713708       -73.8438
  18   1.0000      -2.710774       -73.7639
  19   1.0000      -2.710739       -73.7630
  20   1.0000      -2.599936       -70.7479
  21   1.0000      -2.535164       -68.9853
  22   1.0000      -2.535164       -68.9853
  23   1.0000      -0.844943       -22.9921
  24   1.0000      -0.449985       -12.2447
  25   1.0000      -0.442479       -12.0405
  26   1.0000      -0.442479       -12.0405
  27   1.0000      -0.369695       -10.0599
  28   1.0000      -0.369691       -10.0598
  29   1.0000      -0.360981        -9.8228
  30   1.0000      -0.351240        -9.5577
  31   1.0000      -0.351240        -9.5577
  32   0.0000      -0.052480        -1.4281
  33   0.0000       0.009854         0.2681
  34   0.0000       0.009854         0.2681
  35   0.0000       0.019951         0.5429
  36   0.0000       0.023258         0.6329

                 SPIN DOWN ORBITALS
  NO   OCC          E(Eh)            E(eV)
   0   1.0000    -483.468150    -13155.8372
   1   1.0000    -278.002666     -7564.8371
   2   1.0000     -62.773034     -1708.1411
   3   1.0000     -56.458831     -1536.3229
   4   1.0000     -56.457788     -1536.2945
   5   1.0000     -56.457788     -1536.2945
   6   1.0000     -33.008319      -898.2020
   7   1.0000     -28.570623      -777.4462
   8   1.0000     -28.560293      -777.1651
   9   1.0000     -28.560293      -777.1651
  10   1.0000      -8.851616      -240.8647
  11   1.0000      -6.632108      -180.4688
  12   1.0000      -6.628065      -180.3588
  13   1.0000      -6.628065      -180.3588
  14   1.0000      -3.799183      -103.3810
  15   1.0000      -2.714866       -73.8753
  16   1.0000      -2.713495       -73.8380
  17   1.0000      -2.713495       -73.8380
  18   1.0000      -2.710325       -73.7517
  19   1.0000      -2.710291       -73.7508
  20   1.0000      -2.460977       -66.9666
  21   1.0000      -2.446377       -66.5693
  22   1.0000      -2.446377       -66.5693
  23   1.0000      -0.841821       -22.9071
  24   1.0000      -0.428435       -11.6583
  25   1.0000      -0.367020        -9.9871
  26   1.0000      -0.367020        -9.9871
  27   1.0000      -0.335664        -9.1339
  28   1.0000      -0.315274        -8.5790
  29   1.0000      -0.315269        -8.5789
  30   0.0000      -0.064221        -1.7475
  31   0.0000       0.007264         0.1977
  32   0.0000       0.007264         0.1977
  33   0.0000       0.017671         0.4808
  34   0.0000       0.022560         0.6139

MULLIKEN ATOMIC CHARGES AND SPIN POPULATIONS
--------------------------------------------
   0 Co:    0.463182    1.963120
   1 Br:   -0.463182    0.036880
Sum of atomic charges         :   -0.0000000

LOEWDIN ATOMIC CHARGES AND SPIN POPULATIONS
-------------------------------------------
   0 Co:   -0.066820    1.910877
   1 Br:    0.066820    0.089123

  Mayer bond orders larger than 0.100000
B(  0-Co,  1-Br) :   1.2010

FINAL SINGLE POINT ENERGY     -3956.801403780341

DIPOLE MOMENT
-------------
                                X             Y             Z
Electronic contribution:     -0.00000      -0.00000       0.72228
Nuclear contribution   :      0.00000       0.00000      -2.84584
                        -----------------------------------------
Total Dipole Moment    :     -0.00000      -0.00000      -2.12355
                        -----------------------------------------
Magnitude (a.u.)       :      2.12355
Magnitude (Debye)      :      5.39764

Rotational constants in cm-1:     0.000000     0.102086     0.102086
Rotational constants in MHz :     0.000000  3060.463500  3060.463500

                             ****ORCA TERMINATED NORMALLY****
TOTAL RUN TIME: 0 days 0 hours 6 minutes 54 seconds 855 msec
