                         Program Version 4.2.0 -  RELEASE  -
|  1> #
|  2> # 42_CoS wb97m-v/aug-cc-pvtz
|  3> #
|  4> ! wb97m-v aug-cc-pvtz def2/jk grid4 nofinalgrid
|  5>
|  6> *xyz 0 4
|  7>   Co  0.00000000000000      0.00000000000000      0.00920129654260
|  8>   S   0.00000000000000      0.00000000000000      1.99079870345740
|  9> *
| 10>
| 11> %pal
| 12> nprocs 24
| 13> end
| 14>
| 15>
| 16>                          ****END OF INPUT****

CARTESIAN COORDINATES (ANGSTROEM)
---------------------------------
  Co     0.000000    0.000000    0.009201
  S      0.000000    0.000000    1.990799

 Total Charge           Charge          ....    0
 Multiplicity           Mult            ....    4
 Number of Electrons    NEL             ....   43
 Basis Dimension        Dim             ....  143

ORBITAL ENERGIES
----------------
                 SPIN UP ORBITALS
  NO   OCC          E(Eh)            E(eV)
   0   1.0000    -278.059267     -7566.3773
   1   1.0000     -89.162026     -2426.2221
   2   1.0000     -33.124353      -901.3595
   3   1.0000     -28.702133      -781.0247
   4   1.0000     -28.650538      -779.6208
   5   1.0000     -28.650538      -779.6208
   6   1.0000      -8.075607      -219.7485
   7   1.0000      -5.983605      -162.8222
   8   1.0000      -5.983605      -162.8222
   9   1.0000      -5.982921      -162.8035
  10   1.0000      -3.956013      -107.6486
  11   1.0000      -2.683742       -73.0283
  12   1.0000      -2.581447       -70.2448
  13   1.0000      -2.581447       -70.2448
  14   1.0000      -0.763587       -20.7783
  15   1.0000      -0.500812       -13.6278
  16   1.0000      -0.489976       -13.3329
  17   1.0000      -0.489976       -13.3329
  18   1.0000      -0.410090       -11.1591
  19   1.0000      -0.410088       -11.1591
  20   1.0000      -0.352805        -9.6003
  21   1.0000      -0.318376        -8.6635
  22   1.0000      -0.318376        -8.6635
  23   0.0000      -0.056200        -1.5293
  24   0.0000       0.010606         0.2886
  25   0.0000       0.010606         0.2886
  26   0.0000       0.017761         0.4833
  27   0.0000       0.022892         0.6229

                 SPIN DOWN ORBITALS
  NO   OCC          E(Eh)            E(eV)
   0   1.0000    -278.057675     -7566.3340
   1   1.0000     -89.158620     -2426.1294
   2   1.0000     -33.066754      -899.7921
   3   1.0000     -28.637664      -779.2704
   4   1.0000     -28.614705      -778.6457
   5   1.0000     -28.614705      -778.6457
   6   1.0000      -8.072235      -219.6567
   7   1.0000      -5.980001      -162.7241
   8   1.0000      -5.976688      -162.6339
   9   1.0000      -5.976688      -162.6339
  10   1.0000      -3.845285      -104.6355
  11   1.0000      -2.504931       -68.1626
  12   1.0000      -2.490945       -67.7821
  13   1.0000      -2.490945       -67.7821
  14   1.0000      -0.738778       -20.1032
  15   1.0000      -0.379125       -10.3165
  16   1.0000      -0.346254        -9.4220
  17   1.0000      -0.346252        -9.4220
  18   1.0000      -0.332965        -9.0604
  19   1.0000      -0.332965        -9.0604
  20   0.0000      -0.072170        -1.9639
  21   0.0000      -0.027347        -0.7441
  22   0.0000      -0.027347        -0.7441
  23   0.0000      -0.022547        -0.6135
  24   0.0000       0.010296         0.2802

MULLIKEN ATOMIC CHARGES AND SPIN POPULATIONS
--------------------------------------------
   0 Co:    0.268342    2.244375
   1 S :   -0.268342    0.755625
Sum of atomic charges         :   -0.0000000

LOEWDIN ATOMIC CHARGES AND SPIN POPULATIONS
-------------------------------------------
   0 Co:    0.058235    2.362543
   1 S :   -0.058235    0.637457

  Mayer bond orders larger than 0.100000
B(  0-Co,  1-S ) :   2.2605

FINAL SINGLE POINT ENERGY     -1780.863573294702

DIPOLE MOMENT
-------------
                                X             Y             Z
Electronic contribution:      0.00000       0.00000      -5.46782
Nuclear contribution   :      0.00000       0.00000       3.17962
                        -----------------------------------------
Total Dipole Moment    :      0.00000       0.00000      -2.28820
                        -----------------------------------------
Magnitude (a.u.)       :      2.28820
Magnitude (Debye)      :      5.81614

Rotational constants in cm-1:     0.000000     0.206757     0.206757
Rotational constants in MHz :     0.000000  6198.412278  6198.412278

                             ****ORCA TERMINATED NORMALLY****
TOTAL RUN TIME: 0 days 0 hours 6 minutes 25 seconds 716 msec
