                         Program Version 4.2.0 -  RELEASE  -
|  1> #
|  2> # 43_NiH wb97m-v/aug-cc-pvtz
|  3> #
|  4> ! wb97m-v aug-cc-pvtz def2/jk grid4 nofinalgrid
|  5>
|  6> *xyz 0 2
|  7>   Ni  0.00000000000000      0.00000000000000      0.25339129346416
|  8>   H   0.00000000000000      0.00000000000000      1.74660870653584
|  9> *
| 10>
| 11> %pal
| 12> nprocs 24
| 13> end
| 14>
| 15>
| 16>                          ****END OF INPUT****

CARTESIAN COORDINATES (ANGSTROEM)
---------------------------------
  Ni     0.000000    0.000000    0.253391
  H      0.000000    0.000000    1.746609

 Total Charge           Charge          ....    0
 Multiplicity           Mult            ....    2
 Number of Electrons    NEL             ....   29
 Basis Dimension        Dim             ....  116

ORBITAL ENERGIES
----------------
                 SPIN UP ORBITALS
  NO   OCC          E(Eh)            E(eV)
   0   1.0000    -300.305319     -8171.7232
   1   1.0000     -35.961335      -978.5577
   2   1.0000     -31.305984      -851.8791
   3   1.0000     -31.274431      -851.0205
   4   1.0000     -31.274430      -851.0205
   5   1.0000      -4.134037      -112.4929
   6   1.0000      -2.739007       -74.5322
   7   1.0000      -2.676610       -72.8343
   8   1.0000      -2.676609       -72.8342
   9   1.0000      -0.431898       -11.7525
  10   1.0000      -0.366057        -9.9609
  11   1.0000      -0.366056        -9.9609
  12   1.0000      -0.337189        -9.1754
  13   1.0000      -0.337189        -9.1754
  14   1.0000      -0.325511        -8.8576
  15   0.0000      -0.021608        -0.5880
  16   0.0000       0.012268         0.3338
  17   0.0000       0.012268         0.3338
  18   0.0000       0.020942         0.5698
  19   0.0000       0.034525         0.9395

                 SPIN DOWN ORBITALS
  NO   OCC          E(Eh)            E(eV)
   0   1.0000    -300.304651     -8171.7050
   1   1.0000     -35.937678      -977.9139
   2   1.0000     -31.276240      -851.0698
   3   1.0000     -31.261660      -850.6730
   4   1.0000     -31.261660      -850.6730
   5   1.0000      -4.089221      -111.2733
   6   1.0000      -2.652914       -72.1895
   7   1.0000      -2.646910       -72.0261
   8   1.0000      -2.646910       -72.0261
   9   1.0000      -0.379325       -10.3220
  10   1.0000      -0.346974        -9.4416
  11   1.0000      -0.346973        -9.4416
  12   1.0000      -0.308784        -8.4024
  13   1.0000      -0.308784        -8.4024
  14   0.0000      -0.034270        -0.9325
  15   0.0000       0.002048         0.0557
  16   0.0000       0.002049         0.0558
  17   0.0000       0.010865         0.2956
  18   0.0000       0.026990         0.7344

MULLIKEN ATOMIC CHARGES AND SPIN POPULATIONS
--------------------------------------------
   0 Ni:    0.047684    0.982324
   1 H :   -0.047684    0.017676
Sum of atomic charges         :    0.0000000

LOEWDIN ATOMIC CHARGES AND SPIN POPULATIONS
-------------------------------------------
   0 Ni:    0.553857    0.970217
   1 H :   -0.553857    0.029783

  Mayer bond orders larger than 0.100000
B(  0-Ni,  1-H ) :   1.0511

FINAL SINGLE POINT ENERGY     -1508.817562038343

DIPOLE MOMENT
-------------
                                X             Y             Z
Electronic contribution:     -0.00000       0.00000      -2.70231
Nuclear contribution   :      0.00000       0.00000       1.44028
                        -----------------------------------------
Total Dipole Moment    :     -0.00000       0.00000      -1.26203
                        -----------------------------------------
Magnitude (a.u.)       :      1.26203
Magnitude (Debye)      :      3.20782

Rotational constants in cm-1:     0.000000     7.629300     7.629300
Rotational constants in MHz :     0.000000 228720.664008 228720.664008

                             ****ORCA TERMINATED NORMALLY****
TOTAL RUN TIME: 0 days 0 hours 3 minutes 13 seconds 800 msec
