                         Program Version 4.2.0 -  RELEASE  -
|  1> #
|  2> # 44_NiF wb97m-v/aug-cc-pvtz
|  3> #
|  4> ! wb97m-v aug-cc-pvtz def2/jk grid4 nofinalgrid
|  5>
|  6> *xyz 0 2
|  7>   Ni  0.00000000000000      0.00000000000000      0.12374716283349
|  8>   F   0.00000000000000      0.00000000000000      1.87625283716651
|  9> *
| 10>
| 11> %pal
| 12> nprocs 24
| 13> end
| 14>
| 15>
| 16>                          ****END OF INPUT****

CARTESIAN COORDINATES (ANGSTROEM)
---------------------------------
  Ni     0.000000    0.000000    0.123747
  F      0.000000    0.000000    1.876253

 Total Charge           Charge          ....    0
 Multiplicity           Mult            ....    2
 Number of Electrons    NEL             ....   37
 Basis Dimension        Dim             ....  139

ORBITAL ENERGIES
----------------
                 SPIN UP ORBITALS
  NO   OCC          E(Eh)            E(eV)
   0   1.0000    -300.326536     -8172.3005
   1   1.0000     -35.980549      -979.0805
   2   1.0000     -31.324201      -852.3748
   3   1.0000     -31.294360      -851.5628
   4   1.0000     -31.294360      -851.5628
   5   1.0000     -24.793865      -674.6754
   6   1.0000      -4.158457      -113.1574
   7   1.0000      -2.763731       -75.2049
   8   1.0000      -2.701898       -73.5224
   9   1.0000      -2.701898       -73.5224
  10   1.0000      -1.185728       -32.2653
  11   1.0000      -0.497279       -13.5316
  12   1.0000      -0.455709       -12.4005
  13   1.0000      -0.455709       -12.4005
  14   1.0000      -0.374465       -10.1897
  15   1.0000      -0.363182        -9.8827
  16   1.0000      -0.363182        -9.8827
  17   1.0000      -0.363043        -9.8789
  18   1.0000      -0.363043        -9.8789
  19   0.0000      -0.047964        -1.3052
  20   0.0000       0.012224         0.3326
  21   0.0000       0.012224         0.3326
  22   0.0000       0.022489         0.6120
  23   0.0000       0.028253         0.7688

                 SPIN DOWN ORBITALS
  NO   OCC          E(Eh)            E(eV)
   0   1.0000    -300.325878     -8172.2826
   1   1.0000     -35.955922      -978.4104
   2   1.0000     -31.293058      -851.5274
   3   1.0000     -31.281097      -851.2019
   4   1.0000     -31.281097      -851.2019
   5   1.0000     -24.793482      -674.6649
   6   1.0000      -4.111930      -111.8913
   7   1.0000      -2.674113       -72.7663
   8   1.0000      -2.671175       -72.6864
   9   1.0000      -2.671175       -72.6864
  10   1.0000      -1.184451       -32.2306
  11   1.0000      -0.470408       -12.8004
  12   1.0000      -0.451086       -12.2747
  13   1.0000      -0.451086       -12.2747
  14   1.0000      -0.347388        -9.4529
  15   1.0000      -0.347388        -9.4529
  16   1.0000      -0.334231        -9.0949
  17   1.0000      -0.334230        -9.0949
  18   0.0000      -0.054785        -1.4908
  19   0.0000       0.010100         0.2748
  20   0.0000       0.010100         0.2748
  21   0.0000       0.020001         0.5443
  22   0.0000       0.026214         0.7133

MULLIKEN ATOMIC CHARGES AND SPIN POPULATIONS
--------------------------------------------
   0 Ni:    0.671917    0.965338
   1 F :   -0.671917    0.034662
Sum of atomic charges         :    0.0000000

LOEWDIN ATOMIC CHARGES AND SPIN POPULATIONS
-------------------------------------------
   0 Ni:    0.473229    0.965577
   1 F :   -0.473229    0.034423

  Mayer bond orders larger than 0.100000
B(  0-Ni,  1-F ) :   0.6218

FINAL SINGLE POINT ENERGY     -1608.131766126978

DIPOLE MOMENT
-------------
                                X             Y             Z
Electronic contribution:      0.00000       0.00000      -1.90075
Nuclear contribution   :      0.00000       0.00000      -0.15532
                        -----------------------------------------
Total Dipole Moment    :      0.00000       0.00000      -2.05607
                        -----------------------------------------
Magnitude (a.u.)       :      2.05607
Magnitude (Debye)      :      5.22612

Rotational constants in cm-1:     0.000000     0.382421     0.382421
Rotational constants in MHz :     0.000000 11464.697327 11464.697327

                             ****ORCA TERMINATED NORMALLY****
TOTAL RUN TIME: 0 days 0 hours 3 minutes 23 seconds 678 msec
