                         Program Version 4.2.0 -  RELEASE  -
|  1> #
|  2> # 46_NiBr wb97m-v/aug-cc-pvtz
|  3> #
|  4> ! wb97m-v aug-cc-pvtz def2/jk grid4 nofinalgrid
|  5>
|  6> *xyz 0 2
|  7>   Ni  0.00000000000000      0.00000000000000     -0.09144593844003
|  8>   Br  0.00000000000000      0.00000000000000      2.09144593844003
|  9> *
| 10>
| 11> %pal
| 12> nprocs 24
| 13> end
| 14>
| 15>
| 16>                          ****END OF INPUT****

CARTESIAN COORDINATES (ANGSTROEM)
---------------------------------
  Ni     0.000000    0.000000   -0.091446
  Br     0.000000    0.000000    2.091446

 Total Charge           Charge          ....    0
 Multiplicity           Mult            ....    2
 Number of Electrons    NEL             ....   63
 Basis Dimension        Dim             ....  152

ORBITAL ENERGIES
----------------
                 SPIN UP ORBITALS
  NO   OCC          E(Eh)            E(eV)
   0   1.0000    -483.469671    -13155.8786
   1   1.0000    -300.354085     -8173.0502
   2   1.0000     -62.774390     -1708.1780
   3   1.0000     -56.460277     -1536.3622
   4   1.0000     -56.459425     -1536.3391
   5   1.0000     -56.459055     -1536.3290
   6   1.0000     -36.011790      -979.9306
   7   1.0000     -31.345930      -852.9661
   8   1.0000     -31.345841      -852.9637
   9   1.0000     -31.313295      -852.0781
  10   1.0000      -8.853091      -240.9049
  11   1.0000      -6.633777      -180.5142
  12   1.0000      -6.630039      -180.4125
  13   1.0000      -6.628962      -180.3832
  14   1.0000      -4.189042      -113.9896
  15   1.0000      -2.777899       -75.5905
  16   1.0000      -2.771685       -75.4214
  17   1.0000      -2.716409       -73.9172
  18   1.0000      -2.715479       -73.8919
  19   1.0000      -2.714714       -73.8711
  20   1.0000      -2.711686       -73.7887
  21   1.0000      -2.711629       -73.7872
  22   1.0000      -2.708879       -73.7124
  23   1.0000      -0.845537       -23.0082
  24   1.0000      -0.468607       -12.7515
  25   1.0000      -0.456087       -12.4108
  26   1.0000      -0.420005       -11.4289
  27   1.0000      -0.396747       -10.7960
  28   1.0000      -0.395367       -10.7585
  29   1.0000      -0.364369        -9.9150
  30   1.0000      -0.356955        -9.7133
  31   1.0000      -0.344760        -9.3814
  32   0.0000      -0.052143        -1.4189
  33   0.0000       0.009741         0.2651
  34   0.0000       0.010841         0.2950
  35   0.0000       0.020081         0.5464
  36   0.0000       0.024108         0.6560

                 SPIN DOWN ORBITALS
  NO   OCC          E(Eh)            E(eV)
   0   1.0000    -483.469559    -13155.8755
   1   1.0000    -300.353604     -8173.0371
   2   1.0000     -62.774350     -1708.1769
   3   1.0000     -56.460251     -1536.3615
   4   1.0000     -56.459152     -1536.3316
   5   1.0000     -56.459016     -1536.3279
   6   1.0000     -35.984515      -979.1884
   7   1.0000     -31.317962      -852.2051
   8   1.0000     -31.317364      -852.1888
   9   1.0000     -31.305853      -851.8756
  10   1.0000      -8.852943      -240.9008
  11   1.0000      -6.633741      -180.5133
  12   1.0000      -6.629592      -180.4004
  13   1.0000      -6.628889      -180.3812
  14   1.0000      -4.137886      -112.5976
  15   1.0000      -2.716894       -73.9304
  16   1.0000      -2.715241       -73.8855
  17   1.0000      -2.714668       -73.8699
  18   1.0000      -2.711397       -73.7809
  19   1.0000      -2.711358       -73.7798
  20   1.0000      -2.703177       -73.5572
  21   1.0000      -2.698168       -73.4209
  22   1.0000      -2.689519       -73.1855
  23   1.0000      -0.843665       -22.9573
  24   1.0000      -0.443981       -12.0813
  25   1.0000      -0.401960       -10.9379
  26   1.0000      -0.377686       -10.2774
  27   1.0000      -0.369267       -10.0483
  28   1.0000      -0.367059        -9.9882
  29   1.0000      -0.342044        -9.3075
  30   1.0000      -0.334196        -9.0939
  31   0.0000      -0.054558        -1.4846
  32   0.0000       0.002548         0.0693
  33   0.0000       0.013977         0.3803
  34   0.0000       0.020472         0.5571
  35   0.0000       0.024007         0.6533

MULLIKEN ATOMIC CHARGES AND SPIN POPULATIONS
--------------------------------------------
   0 Ni:    0.474443    0.972326
   1 Br:   -0.474443    0.027674
Sum of atomic charges         :    0.0000000

LOEWDIN ATOMIC CHARGES AND SPIN POPULATIONS
-------------------------------------------
   0 Ni:   -0.045424    0.950871
   1 Br:    0.045424    0.049129

  Mayer bond orders larger than 0.100000
B(  0-Ni,  1-Br) :   1.1516

FINAL SINGLE POINT ENERGY     -4082.366271569187

DIPOLE MOMENT
-------------
                                X             Y             Z
Electronic contribution:      0.00000      -0.00000       3.39749
Nuclear contribution   :      0.00000       0.00000      -5.43759
                        -----------------------------------------
Total Dipole Moment    :      0.00000      -0.00000      -2.04010
                        -----------------------------------------
Magnitude (a.u.)       :      2.04010
Magnitude (Debye)      :      5.18551

Rotational constants in cm-1:     0.000000     0.104547     0.104547
Rotational constants in MHz :     0.000000  3134.234625  3134.234625

                             ****ORCA TERMINATED NORMALLY****
TOTAL RUN TIME: 0 days 0 hours 5 minutes 59 seconds 321 msec
