                         Program Version 4.2.0 -  RELEASE  -
|  1> #
|  2> # 47_NiO wb97m-v/aug-cc-pvtz
|  3> #
|  4> ! wb97m-v aug-cc-pvtz def2/jk grid4 nofinalgrid
|  5>
|  6> *xyz 0 3
|  7>   Ni  0.00000000000000      0.00000000000000      0.18512940996137
|  8>   O   0.00000000000000      0.00000000000000      1.81487059003863
|  9> *
| 10>
| 11> %pal
| 12> nprocs 24
| 13> end
| 14>
| 15>
| 16>                          ****END OF INPUT****

CARTESIAN COORDINATES (ANGSTROEM)
---------------------------------
  Ni     0.000000    0.000000    0.185129
  O      0.000000    0.000000    1.814871

 Total Charge           Charge          ....    0
 Multiplicity           Mult            ....    3
 Number of Electrons    NEL             ....   36
 Basis Dimension        Dim             ....  139

ORBITAL ENERGIES
----------------
                 SPIN UP ORBITALS
  NO   OCC          E(Eh)            E(eV)
   0   1.0000    -300.382361     -8173.8196
   1   1.0000     -36.049200      -980.9486
   2   1.0000     -31.390044      -854.1665
   3   1.0000     -31.363676      -853.4490
   4   1.0000     -31.360260      -853.3561
   5   1.0000     -19.310740      -525.4720
   6   1.0000      -4.222516      -114.9005
   7   1.0000      -2.824786       -76.8663
   8   1.0000      -2.770449       -75.3878
   9   1.0000      -2.761078       -75.1327
  10   1.0000      -1.011973       -27.5372
  11   1.0000      -0.504167       -13.7191
  12   1.0000      -0.493280       -13.4228
  13   1.0000      -0.478420       -13.0185
  14   1.0000      -0.420549       -11.4437
  15   1.0000      -0.417118       -11.3504
  16   1.0000      -0.374494       -10.1905
  17   1.0000      -0.362159        -9.8548
  18   1.0000      -0.347676        -9.4608
  19   0.0000      -0.050075        -1.3626
  20   0.0000       0.012159         0.3309
  21   0.0000       0.012288         0.3344
  22   0.0000       0.021230         0.5777
  23   0.0000       0.026088         0.7099

                 SPIN DOWN ORBITALS
  NO   OCC          E(Eh)            E(eV)
   0   1.0000    -300.381172     -8173.7872
   1   1.0000     -36.016558      -980.0604
   2   1.0000     -31.354983      -853.2125
   3   1.0000     -31.341390      -852.8426
   4   1.0000     -31.340729      -852.8246
   5   1.0000     -19.292788      -524.9834
   6   1.0000      -4.163363      -113.2909
   7   1.0000      -2.728382       -74.2430
   8   1.0000      -2.719983       -74.0145
   9   1.0000      -2.716151       -73.9102
  10   1.0000      -0.962242       -26.1839
  11   1.0000      -0.453855       -12.3500
  12   1.0000      -0.425685       -11.5835
  13   1.0000      -0.383313       -10.4305
  14   1.0000      -0.382377       -10.4050
  15   1.0000      -0.368266       -10.0210
  16   1.0000      -0.321064        -8.7366
  17   0.0000      -0.065067        -1.7706
  18   0.0000      -0.024451        -0.6653
  19   0.0000       0.000225         0.0061
  20   0.0000       0.009623         0.2618
  21   0.0000       0.018988         0.5167

MULLIKEN ATOMIC CHARGES AND SPIN POPULATIONS
--------------------------------------------
   0 Ni:    0.658407    1.224850
   1 O :   -0.658407    0.775150
Sum of atomic charges         :   -0.0000000

LOEWDIN ATOMIC CHARGES AND SPIN POPULATIONS
-------------------------------------------
   0 Ni:    0.567201    1.286241
   1 O :   -0.567201    0.713759

  Mayer bond orders larger than 0.100000
B(  0-Ni,  1-O ) :   1.5435

FINAL SINGLE POINT ENERGY     -1583.417640770219

DIPOLE MOMENT
-------------
                                X             Y             Z
Electronic contribution:      0.00000      -0.00000      -3.03275
Nuclear contribution   :      0.00000       0.00000       0.89170
                        -----------------------------------------
Total Dipole Moment    :      0.00000      -0.00000      -2.14105
                        -----------------------------------------
Magnitude (a.u.)       :      2.14105
Magnitude (Debye)      :      5.44211

Rotational constants in cm-1:     0.000000     0.504828     0.504828
Rotational constants in MHz :     0.000000 15134.363944 15134.363944

                             ****ORCA TERMINATED NORMALLY****
TOTAL RUN TIME: 0 days 0 hours 7 minutes 8 seconds 747 msec
