                         Program Version 4.2.0 -  RELEASE  -
|  1> #
|  2> # 48_NiS wb97m-v/aug-cc-pvtz
|  3> #
|  4> ! wb97m-v aug-cc-pvtz def2/jk grid4 nofinalgrid
|  5>
|  6> *xyz 0 3
|  7>   Ni  0.00000000000000      0.00000000000000      0.01491413562016
|  8>   S   0.00000000000000      0.00000000000000      1.98508586437984
|  9> *
| 10>
| 11> %pal
| 12> nprocs 24
| 13> end
| 14>
| 15>
| 16>                          ****END OF INPUT****

CARTESIAN COORDINATES (ANGSTROEM)
---------------------------------
  Ni     0.000000    0.000000    0.014914
  S      0.000000    0.000000    1.985086

 Total Charge           Charge          ....    0
 Multiplicity           Mult            ....    3
 Number of Electrons    NEL             ....   44
 Basis Dimension        Dim             ....  143

ORBITAL ENERGIES
----------------
                 SPIN UP ORBITALS
  NO   OCC          E(Eh)            E(eV)
   0   1.0000    -300.392236     -8174.0883
   1   1.0000     -89.186199     -2426.8798
   2   1.0000     -36.061685      -981.2883
   3   1.0000     -31.398646      -854.4006
   4   1.0000     -31.375781      -853.7784
   5   1.0000     -31.375781      -853.7784
   6   1.0000      -8.098315      -220.3664
   7   1.0000      -6.008052      -163.4874
   8   1.0000      -6.008052      -163.4874
   9   1.0000      -6.003867      -163.3735
  10   1.0000      -4.233274      -115.1932
  11   1.0000      -2.829248       -76.9877
  12   1.0000      -2.779450       -75.6327
  13   1.0000      -2.779450       -75.6327
  14   1.0000      -0.780798       -21.2466
  15   1.0000      -0.484057       -13.1719
  16   1.0000      -0.484057       -13.1719
  17   1.0000      -0.477406       -12.9909
  18   1.0000      -0.426427       -11.6037
  19   1.0000      -0.426425       -11.6036
  20   1.0000      -0.355630        -9.6772
  21   1.0000      -0.336096        -9.1456
  22   1.0000      -0.336096        -9.1456
  23   0.0000      -0.050273        -1.3680
  24   0.0000       0.012120         0.3298
  25   0.0000       0.012120         0.3298
  26   0.0000       0.020848         0.5673
  27   0.0000       0.023141         0.6297

                 SPIN DOWN ORBITALS
  NO   OCC          E(Eh)            E(eV)
   0   1.0000    -300.391508     -8174.0685
   1   1.0000     -89.181211     -2426.7441
   2   1.0000     -36.026214      -980.3231
   3   1.0000     -31.361540      -853.3909
   4   1.0000     -31.352564      -853.1466
   5   1.0000     -31.352564      -853.1466
   6   1.0000      -8.093373      -220.2319
   7   1.0000      -6.000154      -163.2725
   8   1.0000      -5.997646      -163.2042
   9   1.0000      -5.997646      -163.2042
  10   1.0000      -4.169650      -113.4619
  11   1.0000      -2.737166       -74.4821
  12   1.0000      -2.721388       -74.0527
  13   1.0000      -2.721388       -74.0527
  14   1.0000      -0.748220       -20.3601
  15   1.0000      -0.449521       -12.2321
  16   1.0000      -0.390561       -10.6277
  17   1.0000      -0.390559       -10.6276
  18   1.0000      -0.348264        -9.4768
  19   1.0000      -0.348264        -9.4768
  20   1.0000      -0.340183        -9.2568
  21   0.0000      -0.049415        -1.3447
  22   0.0000      -0.041173        -1.1204
  23   0.0000      -0.041173        -1.1204
  24   0.0000       0.015158         0.4125
  25   0.0000       0.015158         0.4125

MULLIKEN ATOMIC CHARGES AND SPIN POPULATIONS
--------------------------------------------
   0 Ni:    0.260238    1.070075
   1 S :   -0.260238    0.929925
Sum of atomic charges         :   -0.0000000

LOEWDIN ATOMIC CHARGES AND SPIN POPULATIONS
-------------------------------------------
   0 Ni:    0.010339    1.204545
   1 S :   -0.010339    0.795455

  Mayer bond orders larger than 0.100000
B(  0-Ni,  1-S ) :   2.3157

FINAL SINGLE POINT ENERGY     -1906.438916782971

DIPOLE MOMENT
-------------
                                X             Y             Z
Electronic contribution:     -0.00000      -0.00000      -3.63847
Nuclear contribution   :      0.00000       0.00000       1.70320
                        -----------------------------------------
Total Dipole Moment    :     -0.00000      -0.00000      -1.93527
                        -----------------------------------------
Magnitude (a.u.)       :      1.93527
Magnitude (Debye)      :      4.91907

Rotational constants in cm-1:     0.000000     0.209451     0.209451
Rotational constants in MHz :     0.000000  6279.170942  6279.170942

                             ****ORCA TERMINATED NORMALLY****
TOTAL RUN TIME: 0 days 0 hours 5 minutes 1 seconds 635 msec
