                         Program Version 4.2.0 -  RELEASE  -
|  1> #
|  2> # 51_CuCl wb97m-v/aug-cc-pvtz
|  3> #
|  4> ! wb97m-v aug-cc-pvtz def2/jk grid4 nofinalgrid
|  5>
|  6> *xyz 0 1
|  7>   Cu  0.00000000000000      0.00000000000000     -0.03459121817691
|  8>   Cl  0.00000000000000      0.00000000000000      2.03459121817691
|  9> *
| 10>
| 11> %pal
| 12> nprocs 24
| 13> end
| 14>
| 15>
| 16>                          ****END OF INPUT****

CARTESIAN COORDINATES (ANGSTROEM)
---------------------------------
  Cu     0.000000    0.000000   -0.034591
  Cl     0.000000    0.000000    2.034591

 Total Charge           Charge          ....    0
 Multiplicity           Mult            ....    1
 Number of Electrons    NEL             ....   46
 Basis Dimension        Dim             ....  143

ORBITAL ENERGIES
----------------

  NO   OCC          E(Eh)            E(eV)
   0   2.0000    -323.567145     -8804.7096
   1   2.0000    -101.837812     -2771.1477
   2   2.0000     -39.080580     -1063.4366
   3   2.0000     -34.180702      -930.1042
   4   2.0000     -34.180702      -930.1042
   5   2.0000     -34.179700      -930.0769
   6   2.0000      -9.594873      -261.0898
   7   2.0000      -7.296745      -198.5545
   8   2.0000      -7.293066      -198.4544
   9   2.0000      -7.293066      -198.4544
  10   2.0000      -4.486676      -122.0887
  11   2.0000      -2.953746       -80.3755
  12   2.0000      -2.949077       -80.2485
  13   2.0000      -2.949077       -80.2485
  14   2.0000      -0.878335       -23.9007
  15   2.0000      -0.464704       -12.6452
  16   2.0000      -0.442856       -12.0507
  17   2.0000      -0.442856       -12.0507
  18   2.0000      -0.420179       -11.4337
  19   2.0000      -0.420176       -11.4336
  20   2.0000      -0.377487       -10.2720
  21   2.0000      -0.364042        -9.9061
  22   2.0000      -0.364042        -9.9061
  23   0.0000      -0.054186        -1.4745
  24   0.0000       0.011304         0.3076
  25   0.0000       0.011305         0.3076
  26   0.0000       0.021516         0.5855
  27   0.0000       0.024966         0.6794

MULLIKEN ATOMIC CHARGES
-----------------------
   0 Cu:    0.537155
   1 Cl:   -0.537155
Sum of atomic charges:   -0.0000000

LOEWDIN ATOMIC CHARGES
----------------------
   0 Cu:    0.050386
   1 Cl:   -0.050386

  Mayer bond orders larger than 0.100000
B(  0-Cu,  1-Cl) :   0.9500

FINAL SINGLE POINT ENERGY     -2100.712913988096

DIPOLE MOMENT
-------------
                                X             Y             Z
Electronic contribution:     -0.00000       0.00000      -4.17112
Nuclear contribution   :      0.00000       0.00000       2.06219
                        -----------------------------------------
Total Dipole Moment    :     -0.00000       0.00000      -2.10893
                        -----------------------------------------
Magnitude (a.u.)       :      2.10893
Magnitude (Debye)      :      5.36049

Rotational constants in cm-1:     0.000000     0.173013     0.173013
Rotational constants in MHz :     0.000000  5186.804112  5186.804112

                             ****ORCA TERMINATED NORMALLY****
TOTAL RUN TIME: 0 days 0 hours 3 minutes 47 seconds 449 msec
