                         Program Version 4.2.0 -  RELEASE  -
|  1> #
|  2> # 53_CuO wb97m-v/aug-cc-pvtz
|  3> #
|  4> ! wb97m-v aug-cc-pvtz def2/jk grid4 nofinalgrid
|  5>
|  6> *xyz 0 2
|  7>   Cu  0.00000000000000      0.00000000000000      0.13870993735929
|  8>   O   0.00000000000000      0.00000000000000      1.86129006264071
|  9> *
| 10>
| 11> %pal
| 12> nprocs 24
| 13> end
| 14>
| 15>
| 16>                          ****END OF INPUT****

CARTESIAN COORDINATES (ANGSTROEM)
---------------------------------
  Cu     0.000000    0.000000    0.138710
  O      0.000000    0.000000    1.861290

 Total Charge           Charge          ....    0
 Multiplicity           Mult            ....    2
 Number of Electrons    NEL             ....   37
 Basis Dimension        Dim             ....  139

ORBITAL ENERGIES
----------------
                 SPIN UP ORBITALS
  NO   OCC          E(Eh)            E(eV)
   0   1.0000    -323.601449     -8805.6431
   1   1.0000     -39.117420     -1064.4391
   2   1.0000     -34.220639      -931.1909
   3   1.0000     -34.214859      -931.0337
   4   1.0000     -34.214859      -931.0337
   5   1.0000     -19.300590      -525.1958
   6   1.0000      -4.524065      -123.1061
   7   1.0000      -2.999239       -81.6135
   8   1.0000      -2.981963       -81.1434
   9   1.0000      -2.981963       -81.1434
  10   1.0000      -0.992830       -27.0163
  11   1.0000      -0.502347       -13.6696
  12   1.0000      -0.477529       -12.9942
  13   1.0000      -0.477529       -12.9942
  14   1.0000      -0.450754       -12.2656
  15   1.0000      -0.450754       -12.2656
  16   1.0000      -0.389808       -10.6072
  17   1.0000      -0.349125        -9.5002
  18   1.0000      -0.349125        -9.5002
  19   0.0000      -0.059458        -1.6179
  20   0.0000       0.012281         0.3342
  21   0.0000       0.012281         0.3342
  22   0.0000       0.020183         0.5492
  23   0.0000       0.027417         0.7460

                 SPIN DOWN ORBITALS
  NO   OCC          E(Eh)            E(eV)
   0   1.0000    -323.600634     -8805.6209
   1   1.0000     -39.113880     -1064.3428
   2   1.0000     -34.217312      -931.1004
   3   1.0000     -34.212254      -930.9628
   4   1.0000     -34.212254      -930.9628
   5   1.0000     -19.283872      -524.7408
   6   1.0000      -4.517741      -122.9340
   7   1.0000      -2.983898       -81.1960
   8   1.0000      -2.979879       -81.0866
   9   1.0000      -2.979879       -81.0866
  10   1.0000      -0.944154       -25.6917
  11   1.0000      -0.469990       -12.7891
  12   1.0000      -0.469990       -12.7891
  13   1.0000      -0.446848       -12.1594
  14   1.0000      -0.446848       -12.1594
  15   1.0000      -0.441626       -12.0173
  16   1.0000      -0.327435        -8.9100
  17   1.0000      -0.327435        -8.9100
  18   0.0000      -0.088912        -2.4194
  19   0.0000      -0.022051        -0.6000
  20   0.0000       0.010894         0.2964
  21   0.0000       0.011150         0.3034
  22   0.0000       0.029034         0.7900

MULLIKEN ATOMIC CHARGES AND SPIN POPULATIONS
--------------------------------------------
   0 Cu:    0.740869    0.272687
   1 O :   -0.740869    0.727313
Sum of atomic charges         :   -0.0000000

LOEWDIN ATOMIC CHARGES AND SPIN POPULATIONS
-------------------------------------------
   0 Cu:    0.480851    0.290510
   1 O :   -0.480851    0.709490

  Mayer bond orders larger than 0.100000
B(  0-Cu,  1-O ) :   1.0091

FINAL SINGLE POINT ENERGY     -1715.579905195052

DIPOLE MOMENT
-------------
                                X             Y             Z
Electronic contribution:     -0.00000      -0.00000      -4.09962
Nuclear contribution   :      0.00000       0.00000       1.81807
                        -----------------------------------------
Total Dipole Moment    :     -0.00000      -0.00000      -2.28155
                        -----------------------------------------
Magnitude (a.u.)       :      2.28155
Magnitude (Debye)      :      5.79925

Rotational constants in cm-1:     0.000000     0.444492     0.444492
Rotational constants in MHz :     0.000000 13325.547784 13325.547784

                             ****ORCA TERMINATED NORMALLY****
TOTAL RUN TIME: 0 days 0 hours 4 minutes 16 seconds 245 msec
