                         Program Version 4.2.0 -  RELEASE  -
|  1> #
|  2> # 55_ZnH wb97m-v/aug-cc-pvtz
|  3> #
|  4> ! wb97m-v aug-cc-pvtz def2/jk grid4 nofinalgrid
|  5>
|  6> *xyz 0 2
|  7>   Zn  0.00000000000000      0.00000000000000      0.19402109306576
|  8>   H   0.00000000000000      0.00000000000000      1.80597890693424
|  9> *
| 10>
| 11> %pal
| 12> nprocs 24
| 13> end
| 14>
| 15>
| 16>                          ****END OF INPUT****

CARTESIAN COORDINATES (ANGSTROEM)
---------------------------------
  Zn     0.000000    0.000000    0.194021
  H      0.000000    0.000000    1.805979

 Total Charge           Charge          ....    0
 Multiplicity           Mult            ....    2
 Number of Electrons    NEL             ....   31
 Basis Dimension        Dim             ....  116

ORBITAL ENERGIES
----------------
                 SPIN UP ORBITALS
  NO   OCC          E(Eh)            E(eV)
   0   1.0000    -347.829759     -9464.9289
   1   1.0000     -42.487711     -1156.1494
   2   1.0000     -37.357439     -1016.5476
   3   1.0000     -37.357439     -1016.5476
   4   1.0000     -37.356269     -1016.5158
   5   1.0000      -5.007691      -136.2662
   6   1.0000      -3.366541       -91.6082
   7   1.0000      -3.366541       -91.6082
   8   1.0000      -3.362704       -91.5038
   9   1.0000      -0.628889       -17.1129
  10   1.0000      -0.621718       -16.9178
  11   1.0000      -0.621717       -16.9178
  12   1.0000      -0.618718       -16.8362
  13   1.0000      -0.618718       -16.8362
  14   1.0000      -0.443008       -12.0549
  15   1.0000      -0.275953        -7.5091
  16   0.0000       0.003078         0.0838
  17   0.0000       0.003078         0.0838
  18   0.0000       0.013603         0.3702
  19   0.0000       0.024444         0.6651
  20   0.0000       0.058058         1.5798

                 SPIN DOWN ORBITALS
  NO   OCC          E(Eh)            E(eV)
   0   1.0000    -347.828788     -9464.9025
   1   1.0000     -42.486892     -1156.1271
   2   1.0000     -37.357042     -1016.5368
   3   1.0000     -37.357042     -1016.5368
   4   1.0000     -37.354327     -1016.4629
   5   1.0000      -5.005627      -136.2100
   6   1.0000      -3.364848       -91.5622
   7   1.0000      -3.364848       -91.5622
   8   1.0000      -3.360339       -91.4395
   9   1.0000      -0.620367       -16.8811
  10   1.0000      -0.619553       -16.8589
  11   1.0000      -0.619553       -16.8589
  12   1.0000      -0.616151       -16.7663
  13   1.0000      -0.616151       -16.7663
  14   1.0000      -0.409472       -11.1423
  15   0.0000      -0.106412        -2.8956
  16   0.0000      -0.032275        -0.8783
  17   0.0000      -0.032266        -0.8780
  18   0.0000      -0.022050        -0.6000
  19   0.0000       0.002337         0.0636

MULLIKEN ATOMIC CHARGES AND SPIN POPULATIONS
--------------------------------------------
   0 Zn:    0.125017    0.721388
   1 H :   -0.125017    0.278612
Sum of atomic charges         :    0.0000000

LOEWDIN ATOMIC CHARGES AND SPIN POPULATIONS
-------------------------------------------
   0 Zn:    0.520406    0.785231
   1 H :   -0.520406    0.214769

  Mayer bond orders larger than 0.100000
B(  0-Zn,  1-H ) :   0.8662

FINAL SINGLE POINT ENERGY     -1779.866942854291

DIPOLE MOMENT
-------------
                                X             Y             Z
Electronic contribution:      0.00000       0.00000      -1.78225
Nuclear contribution   :      0.00000       0.00000       1.61237
                        -----------------------------------------
Total Dipole Moment    :      0.00000       0.00000      -0.16988
                        -----------------------------------------
Magnitude (a.u.)       :      0.16988
Magnitude (Debye)      :      0.43181

Rotational constants in cm-1:     0.000000     6.535423     6.535423
Rotational constants in MHz :     0.000000 195927.048997 195927.048997

                             ****ORCA TERMINATED NORMALLY****
TOTAL RUN TIME: 0 days 0 hours 2 minutes 36 seconds 102 msec
