                         Program Version 4.2.0 -  RELEASE  -
|  1> #
|  2> # 56_ZnF wb97m-v/aug-cc-pvtz
|  3> #
|  4> ! wb97m-v aug-cc-pvtz def2/jk grid4 nofinalgrid
|  5>
|  6> *xyz 0 2
|  7>   Zn  0.00000000000000      0.00000000000000      0.10305473518103
|  8>   F   0.00000000000000      0.00000000000000      1.89694526481897
|  9> *
| 10>
| 11> %pal
| 12> nprocs 24
| 13> end
| 14>
| 15>
| 16>                          ****END OF INPUT****

CARTESIAN COORDINATES (ANGSTROEM)
---------------------------------
  Zn     0.000000    0.000000    0.103055
  F      0.000000    0.000000    1.896945

 Total Charge           Charge          ....    0
 Multiplicity           Mult            ....    2
 Number of Electrons    NEL             ....   39
 Basis Dimension        Dim             ....  139

ORBITAL ENERGIES
----------------
                 SPIN UP ORBITALS
  NO   OCC          E(Eh)            E(eV)
   0   1.0000    -347.852257     -9465.5411
   1   1.0000     -42.507886     -1156.6984
   2   1.0000     -37.378200     -1017.1125
   3   1.0000     -37.378200     -1017.1125
   4   1.0000     -37.375537     -1017.0401
   5   1.0000     -24.838854      -675.8996
   6   1.0000      -5.031671      -136.9187
   7   1.0000      -3.391575       -92.2894
   8   1.0000      -3.391575       -92.2894
   9   1.0000      -3.385492       -92.1239
  10   1.0000      -1.232218       -33.5303
  11   1.0000      -0.655470       -17.8363
  12   1.0000      -0.647537       -17.6204
  13   1.0000      -0.647536       -17.6204
  14   1.0000      -0.647266       -17.6130
  15   1.0000      -0.647266       -17.6130
  16   1.0000      -0.506609       -13.7855
  17   1.0000      -0.467693       -12.7266
  18   1.0000      -0.467686       -12.7264
  19   1.0000      -0.331245        -9.0136
  20   0.0000       0.004856         0.1321
  21   0.0000       0.004861         0.1323
  22   0.0000       0.012257         0.3335
  23   0.0000       0.022995         0.6257
  24   0.0000       0.058998         1.6054

                 SPIN DOWN ORBITALS
  NO   OCC          E(Eh)            E(eV)
   0   1.0000    -347.850906     -9465.5044
   1   1.0000     -42.506452     -1156.6594
   2   1.0000     -37.377491     -1017.0932
   3   1.0000     -37.377491     -1017.0932
   4   1.0000     -37.373205     -1016.9766
   5   1.0000     -24.834352      -675.7771
   6   1.0000      -5.028346      -136.8282
   7   1.0000      -3.388477       -92.2052
   8   1.0000      -3.388477       -92.2052
   9   1.0000      -3.383012       -92.0564
  10   1.0000      -1.221876       -33.2489
  11   1.0000      -0.645682       -17.5699
  12   1.0000      -0.643965       -17.5232
  13   1.0000      -0.643965       -17.5232
  14   1.0000      -0.643578       -17.5126
  15   1.0000      -0.643577       -17.5126
  16   1.0000      -0.483661       -13.1611
  17   1.0000      -0.462463       -12.5843
  18   1.0000      -0.462455       -12.5840
  19   0.0000      -0.189107        -5.1459
  20   0.0000      -0.100052        -2.7226
  21   0.0000      -0.069930        -1.9029
  22   0.0000      -0.060495        -1.6462
  23   0.0000      -0.024138        -0.6568

MULLIKEN ATOMIC CHARGES AND SPIN POPULATIONS
--------------------------------------------
   0 Zn:    0.644796    0.922850
   1 F :   -0.644796    0.077150
Sum of atomic charges         :    0.0000000

LOEWDIN ATOMIC CHARGES AND SPIN POPULATIONS
-------------------------------------------
   0 Zn:    0.528952    0.821690
   1 F :   -0.528952    0.178310

  Mayer bond orders larger than 0.100000
B(  0-Zn,  1-F ) :   0.5480

FINAL SINGLE POINT ENERGY     -1879.187724082050

DIPOLE MOMENT
-------------
                                X             Y             Z
Electronic contribution:      0.00010      -0.00001      -1.90385
Nuclear contribution   :      0.00000       0.00000       0.74245
                        -----------------------------------------
Total Dipole Moment    :      0.00010      -0.00001      -1.16140
                        -----------------------------------------
Magnitude (a.u.)       :      1.16140
Magnitude (Debye)      :      2.95205

Rotational constants in cm-1:     0.000000     0.355862     0.355862
Rotational constants in MHz :     0.000000 10668.470416 10668.470416

                             ****ORCA TERMINATED NORMALLY****
TOTAL RUN TIME: 0 days 0 hours 22 minutes 31 seconds 597 msec
