                         Program Version 4.2.0 -  RELEASE  -
|  1> #
|  2> # 57_ZnCl wb97m-v/aug-cc-pvtz
|  3> #
|  4> ! wb97m-v aug-cc-pvtz def2/jk grid4 nofinalgrid
|  5>
|  6> *xyz 0 2
|  7>   Zn  0.00000000000000      0.00000000000000     -0.08307444970280
|  8>   Cl  0.00000000000000      0.00000000000000      2.08307444970280
|  9> *
| 10>
| 11> %pal
| 12> nprocs 24
| 13> end
| 14>
| 15>
| 16>                          ****END OF INPUT****

CARTESIAN COORDINATES (ANGSTROEM)
---------------------------------
  Zn     0.000000    0.000000   -0.083074
  Cl     0.000000    0.000000    2.083074

 Total Charge           Charge          ....    0
 Multiplicity           Mult            ....    2
 Number of Electrons    NEL             ....   47
 Basis Dimension        Dim             ....  143

ORBITAL ENERGIES
----------------
                 SPIN UP ORBITALS
  NO   OCC          E(Eh)            E(eV)
   0   1.0000    -347.862003     -9465.8063
   1   1.0000    -101.867705     -2771.9612
   2   1.0000     -42.518034     -1156.9745
   3   1.0000     -37.387970     -1017.3784
   4   1.0000     -37.387970     -1017.3784
   5   1.0000     -37.386440     -1017.3368
   6   1.0000      -9.624986      -261.9092
   7   1.0000      -7.328666      -199.4231
   8   1.0000      -7.322875      -199.2656
   9   1.0000      -7.322875      -199.2656
  10   1.0000      -5.040342      -137.1547
  11   1.0000      -3.399324       -92.5003
  12   1.0000      -3.399324       -92.5003
  13   1.0000      -3.395642       -92.4001
  14   1.0000      -0.913716       -24.8635
  15   1.0000      -0.655817       -17.8457
  16   1.0000      -0.654522       -17.8105
  17   1.0000      -0.654515       -17.8103
  18   1.0000      -0.654036       -17.7972
  19   1.0000      -0.654036       -17.7972
  20   1.0000      -0.475395       -12.9362
  21   1.0000      -0.410384       -11.1671
  22   1.0000      -0.410383       -11.1671
  23   1.0000      -0.320962        -8.7338
  24   0.0000       0.003457         0.0941
  25   0.0000       0.003458         0.0941
  26   0.0000       0.011966         0.3256
  27   0.0000       0.019905         0.5416
  28   0.0000       0.052290         1.4229

                 SPIN DOWN ORBITALS
  NO   OCC          E(Eh)            E(eV)
   0   1.0000    -347.860718     -9465.7714
   1   1.0000    -101.866177     -2771.9196
   2   1.0000     -42.516899     -1156.9436
   3   1.0000     -37.387383     -1017.3624
   4   1.0000     -37.387383     -1017.3624
   5   1.0000     -37.384537     -1017.2850
   6   1.0000      -9.623477      -261.8681
   7   1.0000      -7.323732      -199.2889
   8   1.0000      -7.321748      -199.2349
   9   1.0000      -7.321748      -199.2349
  10   1.0000      -5.037542      -137.0785
  11   1.0000      -3.396822       -92.4322
  12   1.0000      -3.396822       -92.4322
  13   1.0000      -3.393518       -92.3423
  14   1.0000      -0.905531       -24.6408
  15   1.0000      -0.651151       -17.7187
  16   1.0000      -0.651143       -17.7185
  17   1.0000      -0.650966       -17.7137
  18   1.0000      -0.650966       -17.7137
  19   1.0000      -0.649236       -17.6666
  20   1.0000      -0.453173       -12.3315
  21   1.0000      -0.406911       -11.0726
  22   1.0000      -0.406910       -11.0726
  23   0.0000      -0.165526        -4.5042
  24   0.0000      -0.111892        -3.0447
  25   0.0000      -0.059541        -1.6202
  26   0.0000      -0.057931        -1.5764
  27   0.0000      -0.007995        -0.2176

MULLIKEN ATOMIC CHARGES AND SPIN POPULATIONS
--------------------------------------------
   0 Zn:    0.488067    0.855317
   1 Cl:   -0.488067    0.144683
Sum of atomic charges         :   -0.0000000

LOEWDIN ATOMIC CHARGES AND SPIN POPULATIONS
-------------------------------------------
   0 Zn:    0.216361    0.788328
   1 Cl:   -0.216361    0.211672

  Mayer bond orders larger than 0.100000
B(  0-Zn,  1-Cl) :   0.8348

FINAL SINGLE POINT ENERGY     -2239.552795491326

DIPOLE MOMENT
-------------
                                X             Y             Z
Electronic contribution:     -0.00003      -0.00001      -2.99486
Nuclear contribution   :      0.00000       0.00000       1.94334
                        -----------------------------------------
Total Dipole Moment    :     -0.00003      -0.00001      -1.05152
                        -----------------------------------------
Magnitude (a.u.)       :      1.05152
Magnitude (Debye)      :      2.67276

Rotational constants in cm-1:     0.000000     0.156288     0.156288
Rotational constants in MHz :     0.000000  4685.390286  4685.390286

                             ****ORCA TERMINATED NORMALLY****
TOTAL RUN TIME: 0 days 0 hours 7 minutes 50 seconds 343 msec
