                         Program Version 4.2.0 -  RELEASE  -
|  1> #
|  2> # 58_ZnBr wb97m-v/aug-cc-pvtz
|  3> #
|  4> ! wb97m-v aug-cc-pvtz def2/jk grid4 nofinalgrid
|  5>
|  6> *xyz 0 2
|  7>   Zn  0.00000000000000      0.00000000000000     -0.15390624723259
|  8>   Br  0.00000000000000      0.00000000000000      2.15390624723258
|  9> *
| 10>
| 11> %pal
| 12> nprocs 24
| 13> end
| 14>
| 15>
| 16>                          ****END OF INPUT****

CARTESIAN COORDINATES (ANGSTROEM)
---------------------------------
  Zn     0.000000    0.000000   -0.153906
  Br     0.000000    0.000000    2.153906

 Total Charge           Charge          ....    0
 Multiplicity           Mult            ....    2
 Number of Electrons    NEL             ....   65
 Basis Dimension        Dim             ....  152

ORBITAL ENERGIES
----------------
                 SPIN UP ORBITALS
  NO   OCC          E(Eh)            E(eV)
   0   1.0000    -483.495703    -13156.5869
   1   1.0000    -347.861745     -9465.7993
   2   1.0000     -62.800158     -1708.8792
   3   1.0000     -56.487013     -1537.0898
   4   1.0000     -56.484807     -1537.0297
   5   1.0000     -56.484807     -1537.0297
   6   1.0000     -42.517789     -1156.9679
   7   1.0000     -37.387629     -1017.3691
   8   1.0000     -37.387629     -1017.3691
   9   1.0000     -37.386388     -1017.3353
  10   1.0000      -8.878891      -241.6069
  11   1.0000      -6.661350      -181.2646
  12   1.0000      -6.654502      -181.0782
  13   1.0000      -6.654502      -181.0782
  14   1.0000      -5.039736      -137.1382
  15   1.0000      -3.398480       -92.4773
  16   1.0000      -3.398480       -92.4773
  17   1.0000      -3.395412       -92.3939
  18   1.0000      -2.743500       -74.6544
  19   1.0000      -2.741577       -74.6021
  20   1.0000      -2.741577       -74.6021
  21   1.0000      -2.736356       -74.4600
  22   1.0000      -2.736322       -74.4591
  23   1.0000      -0.874950       -23.8086
  24   1.0000      -0.653968       -17.7954
  25   1.0000      -0.653540       -17.7837
  26   1.0000      -0.653531       -17.7835
  27   1.0000      -0.653033       -17.7699
  28   1.0000      -0.653033       -17.7699
  29   1.0000      -0.461691       -12.5633
  30   1.0000      -0.388307       -10.5664
  31   1.0000      -0.388307       -10.5664
  32   1.0000      -0.315522        -8.5858
  33   0.0000       0.003110         0.0846
  34   0.0000       0.003111         0.0847
  35   0.0000       0.011831         0.3219
  36   0.0000       0.018845         0.5128
  37   0.0000       0.049758         1.3540

                 SPIN DOWN ORBITALS
  NO   OCC          E(Eh)            E(eV)
   0   1.0000    -483.494971    -13156.5670
   1   1.0000    -347.860518     -9465.7659
   2   1.0000     -62.799908     -1708.8724
   3   1.0000     -56.485484     -1537.0482
   4   1.0000     -56.484519     -1537.0219
   5   1.0000     -56.484519     -1537.0219
   6   1.0000     -42.516764     -1156.9400
   7   1.0000     -37.387096     -1017.3546
   8   1.0000     -37.387096     -1017.3546
   9   1.0000     -37.384655     -1017.2882
  10   1.0000      -8.877918      -241.5804
  11   1.0000      -6.658814      -181.1956
  12   1.0000      -6.653991      -181.0643
  13   1.0000      -6.653991      -181.0643
  14   1.0000      -5.037155      -137.0680
  15   1.0000      -3.396204       -92.4154
  16   1.0000      -3.396204       -92.4154
  17   1.0000      -3.393458       -92.3407
  18   1.0000      -2.741410       -74.5976
  19   1.0000      -2.739904       -74.5566
  20   1.0000      -2.739904       -74.5566
  21   1.0000      -2.735993       -74.4502
  22   1.0000      -2.735960       -74.4493
  23   1.0000      -0.865436       -23.5497
  24   1.0000      -0.650406       -17.6984
  25   1.0000      -0.650397       -17.6982
  26   1.0000      -0.650128       -17.6909
  27   1.0000      -0.650128       -17.6909
  28   1.0000      -0.648037       -17.6340
  29   1.0000      -0.435691       -11.8557
  30   1.0000      -0.384765       -10.4700
  31   1.0000      -0.384765       -10.4700
  32   0.0000      -0.149118        -4.0577
  33   0.0000      -0.093681        -2.5492
  34   0.0000      -0.056050        -1.5252
  35   0.0000      -0.055112        -1.4997
  36   0.0000      -0.002575        -0.0701

MULLIKEN ATOMIC CHARGES AND SPIN POPULATIONS
--------------------------------------------
   0 Zn:    0.409504    0.811163
   1 Br:   -0.409504    0.188837
Sum of atomic charges         :   -0.0000000

LOEWDIN ATOMIC CHARGES AND SPIN POPULATIONS
-------------------------------------------
   0 Zn:    0.154155    0.756304
   1 Br:   -0.154155    0.243696

  Mayer bond orders larger than 0.100000
B(  0-Zn,  1-Br) :   0.8975

FINAL SINGLE POINT ENERGY     -4353.416667200476

DIPOLE MOMENT
-------------
                                X             Y             Z
Electronic contribution:      0.00000       0.00000       2.28238
Nuclear contribution   :      0.00000       0.00000      -3.26305
                        -----------------------------------------
Total Dipole Moment    :      0.00000       0.00000      -0.98067
                        -----------------------------------------
Magnitude (a.u.)       :      0.98067
Magnitude (Debye)      :      2.49266

Rotational constants in cm-1:     0.000000     0.088026     0.088026
Rotational constants in MHz :     0.000000  2638.947188  2638.947188

                             ****ORCA TERMINATED NORMALLY****
TOTAL RUN TIME: 0 days 0 hours 6 minutes 34 seconds 742 msec
