                         Program Version 4.2.0 -  RELEASE  -
|  1> #
|  2> # 61_Sc wb97m-v/aug-cc-pvtz
|  3> #
|  4> ! wb97m-v aug-cc-pvtz def2/jk grid4 nofinalgrid
|  5>
|  6> *xyz 0 2
|  7> Sc 0.0 0.0 0.0
|  8> *
|  9>
| 10> %pal
| 11> nprocs 24
| 12> end
| 13>
| 14>
| 15>                          ****END OF INPUT****

CARTESIAN COORDINATES (ANGSTROEM)
---------------------------------
  Sc     0.000000    0.000000    0.000000

 Total Charge           Charge          ....    0
 Multiplicity           Mult            ....    2
 Number of Electrons    NEL             ....   21
 Basis Dimension        Dim             ....   93

ORBITAL ENERGIES
----------------
                 SPIN UP ORBITALS
  NO   OCC          E(Eh)            E(eV)
   0   1.0000    -162.135101     -4411.9204
   1   1.0000     -17.843870      -485.5564
   2   1.0000     -14.701300      -400.0427
   3   1.0000     -14.692920      -399.8147
   4   1.0000     -14.691908      -399.7871
   5   1.0000      -2.259078       -61.4726
   6   1.0000      -1.436671       -39.0938
   7   1.0000      -1.432491       -38.9800
   8   1.0000      -1.431637       -38.9568
   9   1.0000      -0.282782        -7.6949
  10   1.0000      -0.237000        -6.4491
  11   0.0000      -0.004086        -0.1112
  12   0.0000      -0.003166        -0.0861
  13   0.0000      -0.003049        -0.0830
  14   0.0000       0.007851         0.2136
  15   0.0000       0.017027         0.4633

                 SPIN DOWN ORBITALS
  NO   OCC          E(Eh)            E(eV)
   0   1.0000    -162.135006     -4411.9178
   1   1.0000     -17.834847      -485.3109
   2   1.0000     -14.699406      -399.9912
   3   1.0000     -14.683118      -399.5480
   4   1.0000     -14.681205      -399.4959
   5   1.0000      -2.230319       -60.6901
   6   1.0000      -1.426997       -38.8306
   7   1.0000      -1.389213       -37.8024
   8   1.0000      -1.384654       -37.6784
   9   1.0000      -0.230273        -6.2660
  10   0.0000      -0.002218        -0.0604
  11   0.0000      -0.001014        -0.0276
  12   0.0000      -0.000897        -0.0244
  13   0.0000       0.009457         0.2573
  14   0.0000       0.023225         0.6320

MULLIKEN ATOMIC CHARGES AND SPIN POPULATIONS
--------------------------------------------
   0 Sc:    0.000000    1.000000
Sum of atomic charges         :    0.0000000

LOEWDIN ATOMIC CHARGES AND SPIN POPULATIONS
-------------------------------------------
   0 Sc:    0.000000    1.000000

FINAL SINGLE POINT ENERGY      -760.585770266683

DIPOLE MOMENT
-------------
                                X             Y             Z
Electronic contribution:     -0.00000      -0.00000       0.00000
Nuclear contribution   :      0.00000       0.00000       0.00000
                        -----------------------------------------
Total Dipole Moment    :     -0.00000      -0.00000       0.00000
                        -----------------------------------------
Magnitude (a.u.)       :      0.00000
Magnitude (Debye)      :      0.00000

Rotational constants in cm-1:     0.000000     0.000000     0.000000
Rotational constants in MHz :     0.000000     0.000000     0.000000

                             ****ORCA TERMINATED NORMALLY****
TOTAL RUN TIME: 0 days 0 hours 1 minutes 55 seconds 232 msec
