                         Program Version 4.2.0 -  RELEASE  -
|  1> #
|  2> # 62_Ti wb97m-v/aug-cc-pvtz
|  3> #
|  4> ! wb97m-v aug-cc-pvtz def2/jk grid4 nofinalgrid
|  5>
|  6> *xyz 0 3
|  7> Ti 0.0 0.0 0.0
|  8> *
|  9>
| 10> %pal
| 11> nprocs 24
| 12> end
| 13>
| 14>
| 15>                          ****END OF INPUT****

CARTESIAN COORDINATES (ANGSTROEM)
---------------------------------
  Ti     0.000000    0.000000    0.000000

 Total Charge           Charge          ....    0
 Multiplicity           Mult            ....    3
 Number of Electrons    NEL             ....   22
 Basis Dimension        Dim             ....   93

ORBITAL ENERGIES
----------------
                 SPIN UP ORBITALS
  NO   OCC          E(Eh)            E(eV)
   0   1.0000    -179.313295     -4879.3628
   1   1.0000     -20.121170      -547.5249
   2   1.0000     -16.758303      -456.0166
   3   1.0000     -16.758184      -456.0134
   4   1.0000     -16.758101      -456.0111
   5   1.0000      -2.551546       -69.4311
   6   1.0000      -1.646416       -44.8013
   7   1.0000      -1.646382       -44.8003
   8   1.0000      -1.646304       -44.7982
   9   1.0000      -0.347696        -9.4613
  10   1.0000      -0.347693        -9.4612
  11   1.0000      -0.252168        -6.8618
  12   0.0000      -0.002580        -0.0702
  13   0.0000      -0.002569        -0.0699
  14   0.0000      -0.002565        -0.0698
  15   0.0000       0.006446         0.1754
  16   0.0000       0.006638         0.1806

                 SPIN DOWN ORBITALS
  NO   OCC          E(Eh)            E(eV)
   0   1.0000    -179.312897     -4879.3520
   1   1.0000     -20.097315      -546.8758
   2   1.0000     -16.738845      -455.4871
   3   1.0000     -16.738614      -455.4808
   4   1.0000     -16.738413      -455.4754
   5   1.0000      -2.484098       -67.5957
   6   1.0000      -1.570898       -42.7463
   7   1.0000      -1.570418       -42.7333
   8   1.0000      -1.569973       -42.7211
   9   1.0000      -0.238803        -6.4982
  10   0.0000       0.001900         0.0517
  11   0.0000       0.001907         0.0519
  12   0.0000       0.001921         0.0523
  13   0.0000       0.012491         0.3399
  14   0.0000       0.028710         0.7812

MULLIKEN ATOMIC CHARGES AND SPIN POPULATIONS
--------------------------------------------
   0 Ti:   -0.000000    2.000000
Sum of atomic charges         :   -0.0000000

LOEWDIN ATOMIC CHARGES AND SPIN POPULATIONS
-------------------------------------------
   0 Ti:   -0.000000    2.000000

FINAL SINGLE POINT ENERGY      -849.314142249249

DIPOLE MOMENT
-------------
                                X             Y             Z
Electronic contribution:      0.00000      -0.00000       0.00000
Nuclear contribution   :      0.00000       0.00000       0.00000
                        -----------------------------------------
Total Dipole Moment    :      0.00000      -0.00000       0.00000
                        -----------------------------------------
Magnitude (a.u.)       :      0.00000
Magnitude (Debye)      :      0.00000

Rotational constants in cm-1:     0.000000     0.000000     0.000000
Rotational constants in MHz :     0.000000     0.000000     0.000000

                             ****ORCA TERMINATED NORMALLY****
TOTAL RUN TIME: 0 days 0 hours 3 minutes 24 seconds 991 msec
