                         Program Version 4.2.0 -  RELEASE  -
|  1> #
|  2> # 66_Fe wb97m-v/aug-cc-pvtz
|  3> #
|  4> ! wb97m-v aug-cc-pvtz def2/jk grid4 nofinalgrid
|  5>
|  6> *xyz 0 5
|  7> Fe 0.0 0.0 0.0
|  8> *
|  9>
| 10> %pal
| 11> nprocs 24
| 12> end
| 13>
| 14>
| 15>                          ****END OF INPUT****

CARTESIAN COORDINATES (ANGSTROEM)
---------------------------------
  Fe     0.000000    0.000000    0.000000

 Total Charge           Charge          ....    0
 Multiplicity           Mult            ....    5
 Number of Electrons    NEL             ....   26
 Basis Dimension        Dim             ....   93

ORBITAL ENERGIES
----------------
                 SPIN UP ORBITALS
  NO   OCC          E(Eh)            E(eV)
   0   1.0000    -256.635634     -6983.4106
   1   1.0000     -30.369609      -826.3991
   2   1.0000     -26.151761      -711.6256
   3   1.0000     -26.120614      -710.7780
   4   1.0000     -26.118996      -710.7340
   5   1.0000      -3.758148      -102.2644
   6   1.0000      -2.550957       -69.4151
   7   1.0000      -2.492119       -67.8140
   8   1.0000      -2.488962       -67.7281
   9   1.0000      -0.537342       -14.6218
  10   1.0000      -0.529641       -14.4123
  11   1.0000      -0.528139       -14.3714
  12   1.0000      -0.501118       -13.6361
  13   1.0000      -0.474281       -12.9058
  14   1.0000      -0.296747        -8.0749
  15   0.0000       0.001166         0.0317
  16   0.0000       0.002565         0.0698
  17   0.0000       0.002717         0.0739
  18   0.0000       0.011645         0.3169
  19   0.0000       0.048856         1.3294

                 SPIN DOWN ORBITALS
  NO   OCC          E(Eh)            E(eV)
   0   1.0000    -256.633837     -6983.3617
   1   1.0000     -30.278413      -823.9175
   2   1.0000     -26.067693      -709.3380
   3   1.0000     -26.054078      -708.9675
   4   1.0000     -26.053404      -708.9492
   5   1.0000      -3.571796       -97.1935
   6   1.0000      -2.307598       -62.7929
   7   1.0000      -2.304746       -62.7153
   8   1.0000      -2.304147       -62.6990
   9   1.0000      -0.379687       -10.3318
  10   1.0000      -0.275921        -7.5082
  11   0.0000      -0.004620        -0.1257
  12   0.0000       0.007192         0.1957
  13   0.0000       0.008276         0.2252
  14   0.0000       0.008846         0.2407
  15   0.0000       0.008955         0.2437

MULLIKEN ATOMIC CHARGES AND SPIN POPULATIONS
--------------------------------------------
   0 Fe:   -0.000000    4.000000
Sum of atomic charges         :   -0.0000000

LOEWDIN ATOMIC CHARGES AND SPIN POPULATIONS
-------------------------------------------
   0 Fe:   -0.000000    4.000000

FINAL SINGLE POINT ENERGY     -1263.616190309865

DIPOLE MOMENT
-------------
                                X             Y             Z
Electronic contribution:      0.00000       0.00000       0.00000
Nuclear contribution   :      0.00000       0.00000       0.00000
                        -----------------------------------------
Total Dipole Moment    :      0.00000       0.00000       0.00000
                        -----------------------------------------
Magnitude (a.u.)       :      0.00000
Magnitude (Debye)      :      0.00000

Rotational constants in cm-1:     0.000000     0.000000     0.000000
Rotational constants in MHz :     0.000000     0.000000     0.000000

                             ****ORCA TERMINATED NORMALLY****
TOTAL RUN TIME: 0 days 0 hours 14 minutes 40 seconds 886 msec
