                         Program Version 4.2.0 -  RELEASE  -
|  1> #
|  2> # 70_Zn wb97m-v/aug-cc-pvtz
|  3> #
|  4> ! wb97m-v aug-cc-pvtz def2/jk grid4 nofinalgrid
|  5>
|  6> *xyz 0 1
|  7> Zn 0.0 0.0 0.0
|  8> *
|  9>
| 10> %pal
| 11> nprocs 24
| 12> end
| 13>
| 14>
| 15>                          ****END OF INPUT****

CARTESIAN COORDINATES (ANGSTROEM)
---------------------------------
  Zn     0.000000    0.000000    0.000000

 Total Charge           Charge          ....    0
 Multiplicity           Mult            ....    1
 Number of Electrons    NEL             ....   30
 Basis Dimension        Dim             ....   93

ORBITAL ENERGIES
----------------

  NO   OCC          E(Eh)            E(eV)
   0   2.0000    -347.796526     -9464.0246
   1   2.0000     -42.453724     -1155.2245
   2   2.0000     -37.322967     -1015.6096
   3   2.0000     -37.322967     -1015.6096
   4   2.0000     -37.322967     -1015.6096
   5   2.0000      -4.973223      -135.3283
   6   2.0000      -3.330768       -90.6348
   7   2.0000      -3.330768       -90.6348
   8   2.0000      -3.330768       -90.6348
   9   2.0000      -0.585621       -15.9355
  10   2.0000      -0.585621       -15.9355
  11   2.0000      -0.585621       -15.9355
  12   2.0000      -0.585621       -15.9355
  13   2.0000      -0.585621       -15.9355
  14   2.0000      -0.320407        -8.7187
  15   0.0000       0.008259         0.2247
  16   0.0000       0.008260         0.2248
  17   0.0000       0.008260         0.2248
  18   0.0000       0.016233         0.4417
  19   0.0000       0.066474         1.8089

MULLIKEN ATOMIC CHARGES
-----------------------
   0 Zn:    0.000000
Sum of atomic charges:    0.0000000

LOEWDIN ATOMIC CHARGES
----------------------
   0 Zn:    0.000000

FINAL SINGLE POINT ENERGY     -1779.338202201977

DIPOLE MOMENT
-------------
                                X             Y             Z
Electronic contribution:     -0.00000       0.00000       0.00000
Nuclear contribution   :      0.00000       0.00000       0.00000
                        -----------------------------------------
Total Dipole Moment    :     -0.00000       0.00000       0.00000
                        -----------------------------------------
Magnitude (a.u.)       :      0.00000
Magnitude (Debye)      :      0.00000

Rotational constants in cm-1:     0.000000     0.000000     0.000000
Rotational constants in MHz :     0.000000     0.000000     0.000000

                             ****ORCA TERMINATED NORMALLY****
TOTAL RUN TIME: 0 days 0 hours 1 minutes 34 seconds 737 msec
