                         Program Version 4.2.0 -  RELEASE  -
|  1> #
|  2> # 72_F wb97m-v/aug-cc-pvtz
|  3> #
|  4> ! wb97m-v aug-cc-pvtz def2/jk grid4 nofinalgrid
|  5>
|  6> *xyz 0 2
|  7> F 0.0 0.0 0.0
|  8> *
|  9>
| 10> %pal
| 11> nprocs 24
| 12> end
| 13>
| 14>
| 15>                          ****END OF INPUT****

CARTESIAN COORDINATES (ANGSTROEM)
---------------------------------
  F      0.000000    0.000000    0.000000

 Total Charge           Charge          ....    0
 Multiplicity           Mult            ....    2
 Number of Electrons    NEL             ....    9
 Basis Dimension        Dim             ....   46

ORBITAL ENERGIES
----------------
                 SPIN UP ORBITALS
  NO   OCC          E(Eh)            E(eV)
   0   1.0000     -25.015108      -680.6957
   1   1.0000      -1.370210       -37.2853
   2   1.0000      -0.672866       -18.3096
   3   1.0000      -0.597299       -16.2533
   4   1.0000      -0.597299       -16.2533
   5   0.0000       0.150631         4.0989
   6   0.0000       0.150714         4.1011
   7   0.0000       0.157768         4.2931
   8   0.0000       0.157768         4.2931
   9   0.0000       0.778300        21.1786

                 SPIN DOWN ORBITALS
  NO   OCC          E(Eh)            E(eV)
   0   1.0000     -24.984579      -679.8650
   1   1.0000      -1.278539       -34.7908
   2   1.0000      -0.560986       -15.2652
   3   1.0000      -0.560986       -15.2652
   4   0.0000      -0.163627        -4.4525
   5   0.0000       0.141627         3.8539
   6   0.0000       0.143499         3.9048
   7   0.0000       0.162191         4.4134
   8   0.0000       0.162191         4.4134

MULLIKEN ATOMIC CHARGES AND SPIN POPULATIONS
--------------------------------------------
   0 F :   -0.000000    1.000000
Sum of atomic charges         :   -0.0000000

LOEWDIN ATOMIC CHARGES AND SPIN POPULATIONS
-------------------------------------------
   0 F :   -0.000000    1.000000

FINAL SINGLE POINT ENERGY       -99.741144416432

DIPOLE MOMENT
-------------
                                X             Y             Z
Electronic contribution:     -0.00000       0.00000      -0.00000
Nuclear contribution   :      0.00000       0.00000       0.00000
                        -----------------------------------------
Total Dipole Moment    :     -0.00000       0.00000      -0.00000
                        -----------------------------------------
Magnitude (a.u.)       :      0.00000
Magnitude (Debye)      :      0.00000

Rotational constants in cm-1:     0.000000     0.000000     0.000000
Rotational constants in MHz :     0.000000     0.000000     0.000000

                             ****ORCA TERMINATED NORMALLY****
TOTAL RUN TIME: 0 days 0 hours 0 minutes 2 seconds 889 msec
