                         Program Version 4.2.0 -  RELEASE  -
|  1> #
|  2> # 73_Cl wb97m-v/aug-cc-pvtz
|  3> #
|  4> ! wb97m-v aug-cc-pvtz def2/jk grid4 nofinalgrid
|  5>
|  6> *xyz 0 2
|  7> Cl 0.0 0.0 0.0
|  8> *
|  9>
| 10> %pal
| 11> nprocs 24
| 12> end
| 13>
| 14>
| 15>                          ****END OF INPUT****

CARTESIAN COORDINATES (ANGSTROEM)
---------------------------------
  Cl     0.000000    0.000000    0.000000

 Total Charge           Charge          ....    0
 Multiplicity           Mult            ....    2
 Number of Electrons    NEL             ....   17
 Basis Dimension        Dim             ....   50

ORBITAL ENERGIES
----------------
                 SPIN UP ORBITALS
  NO   OCC          E(Eh)            E(eV)
   0   1.0000    -101.948208     -2774.1518
   1   1.0000      -9.702337      -264.0140
   2   1.0000      -7.419332      -201.8903
   3   1.0000      -7.396439      -201.2673
   4   1.0000      -7.396439      -201.2673
   5   1.0000      -0.968601       -26.3570
   6   1.0000      -0.504778       -13.7357
   7   1.0000      -0.460926       -12.5424
   8   1.0000      -0.460926       -12.5424
   9   0.0000       0.079532         2.1642
  10   0.0000       0.084786         2.3071
  11   0.0000       0.084786         2.3071
  12   0.0000       0.090067         2.4509
  13   0.0000       0.274252         7.4628

                 SPIN DOWN ORBITALS
  NO   OCC          E(Eh)            E(eV)
   0   1.0000    -101.941200     -2773.9611
   1   1.0000      -9.696007      -263.8418
   2   1.0000      -7.395856      -201.2515
   3   1.0000      -7.391926      -201.1445
   4   1.0000      -7.391926      -201.1445
   5   1.0000      -0.917170       -24.9575
   6   1.0000      -0.443053       -12.0561
   7   1.0000      -0.443053       -12.0561
   8   0.0000      -0.158246        -4.3061
   9   0.0000       0.060122         1.6360
  10   0.0000       0.073476         1.9994
  11   0.0000       0.084888         2.3099
  12   0.0000       0.084893         2.3101

MULLIKEN ATOMIC CHARGES AND SPIN POPULATIONS
--------------------------------------------
   0 Cl:   -0.000000    1.000000
Sum of atomic charges         :   -0.0000000

LOEWDIN ATOMIC CHARGES AND SPIN POPULATIONS
-------------------------------------------
   0 Cl:   -0.000000    1.000000

FINAL SINGLE POINT ENERGY      -460.134337257873

DIPOLE MOMENT
-------------
                                X             Y             Z
Electronic contribution:     -0.00000      -0.00000      -0.00000
Nuclear contribution   :      0.00000       0.00000       0.00000
                        -----------------------------------------
Total Dipole Moment    :     -0.00000      -0.00000      -0.00000
                        -----------------------------------------
Magnitude (a.u.)       :      0.00000
Magnitude (Debye)      :      0.00000

Rotational constants in cm-1:     0.000000     0.000000     0.000000
Rotational constants in MHz :     0.000000     0.000000     0.000000

                             ****ORCA TERMINATED NORMALLY****
TOTAL RUN TIME: 0 days 0 hours 0 minutes 3 seconds 836 msec
