                         Program Version 4.2.0 -  RELEASE  -
|  1> #
|  2> # 74_Br wb97m-v/aug-cc-pvtz
|  3> #
|  4> ! wb97m-v aug-cc-pvtz def2/jk grid4 nofinalgrid
|  5>
|  6> *xyz 0 2
|  7> Br 0.0 0.0 0.0
|  8> *
|  9>
| 10> %pal
| 11> nprocs 24
| 12> end
| 13>
| 14>
| 15>                          ****END OF INPUT****

CARTESIAN COORDINATES (ANGSTROEM)
---------------------------------
  Br     0.000000    0.000000    0.000000

 Total Charge           Charge          ....    0
 Multiplicity           Mult            ....    2
 Number of Electrons    NEL             ....   35
 Basis Dimension        Dim             ....   59

ORBITAL ENERGIES
----------------
                 SPIN UP ORBITALS
  NO   OCC          E(Eh)            E(eV)
   0   1.0000    -483.553988    -13158.1730
   1   1.0000     -62.857230     -1710.4322
   2   1.0000     -56.548226     -1538.7555
   3   1.0000     -56.540832     -1538.5543
   4   1.0000     -56.540832     -1538.5543
   5   1.0000      -8.936331      -243.1699
   6   1.0000      -6.728694      -183.0971
   7   1.0000      -6.707306      -182.5151
   8   1.0000      -6.707306      -182.5151
   9   1.0000      -2.808164       -76.4140
  10   1.0000      -2.802796       -76.2680
  11   1.0000      -2.802796       -76.2680
  12   1.0000      -2.786798       -75.8326
  13   1.0000      -2.786798       -75.8326
  14   1.0000      -0.918112       -24.9831
  15   1.0000      -0.468472       -12.7478
  16   1.0000      -0.425408       -11.5759
  17   1.0000      -0.425408       -11.5759
  18   0.0000       0.059686         1.6241
  19   0.0000       0.063399         1.7252
  20   0.0000       0.068307         1.8587
  21   0.0000       0.068307         1.8587
  22   0.0000       0.213506         5.8098

                 SPIN DOWN ORBITALS
  NO   OCC          E(Eh)            E(eV)
   0   1.0000    -483.551237    -13158.0981
   1   1.0000     -62.856342     -1710.4080
   2   1.0000     -56.542126     -1538.5895
   3   1.0000     -56.539838     -1538.5272
   4   1.0000     -56.539838     -1538.5272
   5   1.0000      -8.932822      -243.0745
   6   1.0000      -6.718694      -182.8250
   7   1.0000      -6.705779      -182.4735
   8   1.0000      -6.705779      -182.4735
   9   1.0000      -2.800159       -76.1962
  10   1.0000      -2.796665       -76.1011
  11   1.0000      -2.796665       -76.1011
  12   1.0000      -2.785990       -75.8106
  13   1.0000      -2.785990       -75.8106
  14   1.0000      -0.868405       -23.6305
  15   1.0000      -0.409848       -11.1525
  16   1.0000      -0.409848       -11.1525
  17   0.0000      -0.145662        -3.9637
  18   0.0000       0.040964         1.1147
  19   0.0000       0.044104         1.2001
  20   0.0000       0.067685         1.8418
  21   0.0000       0.067687         1.8419

MULLIKEN ATOMIC CHARGES AND SPIN POPULATIONS
--------------------------------------------
   0 Br:   -0.000000    1.000000
Sum of atomic charges         :   -0.0000000

LOEWDIN ATOMIC CHARGES AND SPIN POPULATIONS
-------------------------------------------
   0 Br:   -0.000000    1.000000

FINAL SINGLE POINT ENERGY     -2574.014684314095

DIPOLE MOMENT
-------------
                                X             Y             Z
Electronic contribution:      0.00000      -0.00000      -0.00000
Nuclear contribution   :      0.00000       0.00000       0.00000
                        -----------------------------------------
Total Dipole Moment    :      0.00000      -0.00000      -0.00000
                        -----------------------------------------
Magnitude (a.u.)       :      0.00000
Magnitude (Debye)      :      0.00000

Rotational constants in cm-1:     0.000000     0.000000     0.000000
Rotational constants in MHz :     0.000000     0.000000     0.000000

                             ****ORCA TERMINATED NORMALLY****
TOTAL RUN TIME: 0 days 0 hours 0 minutes 12 seconds 688 msec
