                         Program Version 4.2.0 -  RELEASE  -
|  1> #
|  2> # 75_O wb97m-v/aug-cc-pvtz
|  3> #
|  4> ! wb97m-v aug-cc-pvtz def2/jk grid4 nofinalgrid
|  5>
|  6> *xyz 0 3
|  7> O 0.0 0.0 0.0
|  8> *
|  9>
| 10> %pal
| 11> nprocs 24
| 12> end
| 13>
| 14>
| 15>                          ****END OF INPUT****

CARTESIAN COORDINATES (ANGSTROEM)
---------------------------------
  O      0.000000    0.000000    0.000000

 Total Charge           Charge          ....    0
 Multiplicity           Mult            ....    3
 Number of Electrons    NEL             ....    8
 Basis Dimension        Dim             ....   46

ORBITAL ENERGIES
----------------
                 SPIN UP ORBITALS
  NO   OCC          E(Eh)            E(eV)
   0   1.0000     -19.487586      -530.2842
   1   1.0000      -1.147611       -31.2281
   2   1.0000      -0.570019       -15.5110
   3   1.0000      -0.570019       -15.5110
   4   1.0000      -0.508427       -13.8350
   5   0.0000       0.119074         3.2402
   6   0.0000       0.121832         3.3152
   7   0.0000       0.121832         3.3152
   8   0.0000       0.127700         3.4749
   9   0.0000       0.572640        15.5823

                 SPIN DOWN ORBITALS
  NO   OCC          E(Eh)            E(eV)
   0   1.0000     -19.437602      -528.9240
   1   1.0000      -0.991171       -26.9711
   2   1.0000      -0.445469       -12.1218
   3   0.0000      -0.089369        -2.4319
   4   0.0000      -0.089366        -2.4318
   5   0.0000       0.088854         2.4179
   6   0.0000       0.105116         2.8603
   7   0.0000       0.105155         2.8614

MULLIKEN ATOMIC CHARGES AND SPIN POPULATIONS
--------------------------------------------
   0 O :   -0.000000    2.000000
Sum of atomic charges         :   -0.0000000

LOEWDIN ATOMIC CHARGES AND SPIN POPULATIONS
-------------------------------------------
   0 O :   -0.000000    2.000000

FINAL SINGLE POINT ENERGY       -75.074786801806

DIPOLE MOMENT
-------------
                                X             Y             Z
Electronic contribution:     -0.00000       0.00000      -0.00000
Nuclear contribution   :      0.00000       0.00000       0.00000
                        -----------------------------------------
Total Dipole Moment    :     -0.00000       0.00000      -0.00000
                        -----------------------------------------
Magnitude (a.u.)       :      0.00000
Magnitude (Debye)      :      0.00000

Rotational constants in cm-1:     0.000000     0.000000     0.000000
Rotational constants in MHz :     0.000000     0.000000     0.000000

                             ****ORCA TERMINATED NORMALLY****
TOTAL RUN TIME: 0 days 0 hours 0 minutes 2 seconds 943 msec
