                         Program Version 4.2.0 -  RELEASE  -
|  1> #
|  2> # 76_S wb97m-v/aug-cc-pvtz
|  3> #
|  4> ! wb97m-v aug-cc-pvtz def2/jk grid4 nofinalgrid
|  5>
|  6> *xyz 0 3
|  7> S 0.0 0.0 0.0
|  8> *
|  9>
| 10> %pal
| 11> nprocs 24
| 12> end
| 13>
| 14>
| 15>                          ****END OF INPUT****

CARTESIAN COORDINATES (ANGSTROEM)
---------------------------------
  S      0.000000    0.000000    0.000000

 Total Charge           Charge          ....    0
 Multiplicity           Mult            ....    3
 Number of Electrons    NEL             ....   16
 Basis Dimension        Dim             ....   50

ORBITAL ENERGIES
----------------
                 SPIN UP ORBITALS
  NO   OCC          E(Eh)            E(eV)
   0   1.0000     -89.270723     -2429.1799
   1   1.0000      -8.179979      -222.5885
   2   1.0000      -6.096740      -165.9007
   3   1.0000      -6.096740      -165.9007
   4   1.0000      -6.077672      -165.3819
   5   1.0000      -0.841344       -22.8941
   6   1.0000      -0.428036       -11.6474
   7   1.0000      -0.428036       -11.6474
   8   1.0000      -0.391429       -10.6513
   9   0.0000       0.067073         1.8251
  10   0.0000       0.067073         1.8251
  11   0.0000       0.071594         1.9482
  12   0.0000       0.072777         1.9804
  13   0.0000       0.210913         5.7392

                 SPIN DOWN ORBITALS
  NO   OCC          E(Eh)            E(eV)
   0   1.0000     -89.259510     -2428.8747
   1   1.0000      -8.169307      -222.2982
   2   1.0000      -6.073689      -165.2735
   3   1.0000      -6.073689      -165.2735
   4   1.0000      -6.070001      -165.1731
   5   1.0000      -0.749313       -20.3898
   6   1.0000      -0.359306        -9.7772
   7   0.0000      -0.106457        -2.8968
   8   0.0000      -0.106457        -2.8968
   9   0.0000       0.019800         0.5388
  10   0.0000       0.035828         0.9749
  11   0.0000       0.035832         0.9750

MULLIKEN ATOMIC CHARGES AND SPIN POPULATIONS
--------------------------------------------
   0 S :   -0.000000    2.000000
Sum of atomic charges         :   -0.0000000

LOEWDIN ATOMIC CHARGES AND SPIN POPULATIONS
-------------------------------------------
   0 S :   -0.000000    2.000000

FINAL SINGLE POINT ENERGY      -398.097598575616

DIPOLE MOMENT
-------------
                                X             Y             Z
Electronic contribution:     -0.00000       0.00000      -0.00000
Nuclear contribution   :      0.00000       0.00000       0.00000
                        -----------------------------------------
Total Dipole Moment    :     -0.00000       0.00000      -0.00000
                        -----------------------------------------
Magnitude (a.u.)       :      0.00000
Magnitude (Debye)      :      0.00000

Rotational constants in cm-1:     0.000000     0.000000     0.000000
Rotational constants in MHz :     0.000000     0.000000     0.000000

                             ****ORCA TERMINATED NORMALLY****
TOTAL RUN TIME: 0 days 0 hours 0 minutes 4 seconds 2 msec
