                         Program Version 4.2.0 -  RELEASE  -
|  1> #
|  2> # 01_ScH scanfunc/aug-cc-pvtz
|  3> #
|  4> ! scanfunc d3bj aug-cc-pvtz def2/j grid4 nofinalgrid
|  5>
|  6> *xyz 0 1
|  7>   Sc  0.00000000000000      0.00000000000000      0.11546868383427
|  8>   H   0.00000000000000      0.00000000000000      1.88453131616573
|  9> *
| 10>
| 11> %pal
| 12> nprocs 24
| 13> end
| 14>
| 15>
| 16>                          ****END OF INPUT****

CARTESIAN COORDINATES (ANGSTROEM)
---------------------------------
  Sc     0.000000    0.000000    0.115469
  H      0.000000    0.000000    1.884531

 Total Charge           Charge          ....    0
 Multiplicity           Mult            ....    1
 Number of Electrons    NEL             ....   22
 Basis Dimension        Dim             ....  116

ORBITAL ENERGIES
----------------

  NO   OCC          E(Eh)            E(eV)
   0   2.0000    -161.427996     -4392.6791
   1   2.0000     -17.573941      -478.2112
   2   2.0000     -14.498406      -394.5217
   3   2.0000     -14.498403      -394.5216
   4   2.0000     -14.482103      -394.0781
   5   2.0000      -2.098400       -57.1004
   6   2.0000      -1.303092       -35.4589
   7   2.0000      -1.303079       -35.4586
   8   2.0000      -1.279783       -34.8247
   9   2.0000      -0.258996        -7.0476
  10   2.0000      -0.149090        -4.0569
  11   0.0000      -0.135411        -3.6847
  12   0.0000      -0.135398        -3.6844
  13   0.0000      -0.119494        -3.2516
  14   0.0000      -0.119488        -3.2514
  15   0.0000      -0.084937        -2.3113

MULLIKEN ATOMIC CHARGES
-----------------------
   0 Sc:    0.325141
   1 H :   -0.325141
Sum of atomic charges:   -0.0000000

LOEWDIN ATOMIC CHARGES
----------------------
   0 Sc:    0.752145
   1 H :   -0.752145

  Mayer bond orders larger than 0.100000
B(  0-Sc,  1-H ) :   1.0590

Dispersion correction           -0.000082260
FINAL SINGLE POINT ENERGY      -761.231750219900

DIPOLE MOMENT
-------------
                                X             Y             Z
Electronic contribution:      0.00000       0.00000      -2.41168
Nuclear contribution   :      0.00000       0.00000       1.73028
                        -----------------------------------------
Total Dipole Moment    :      0.00000       0.00000      -0.68140
                        -----------------------------------------
Magnitude (a.u.)       :      0.68140
Magnitude (Debye)      :      1.73198

Rotational constants in cm-1:     0.000000     5.463605     5.463605
Rotational constants in MHz :     0.000000 163794.743331 163794.743331

                             ****ORCA TERMINATED NORMALLY****
TOTAL RUN TIME: 0 days 0 hours 0 minutes 22 seconds 747 msec
