                         Program Version 4.2.0 -  RELEASE  -
|  1> #
|  2> # 04_ScBr scanfunc/aug-cc-pvtz
|  3> #
|  4> ! scanfunc d3bj aug-cc-pvtz def2/j grid4 nofinalgrid
|  5>
|  6> *xyz 0 1
|  7>   Sc  0.00000000000000      0.00000000000000     -0.19342129509946
|  8>   Br  0.00000000000000      0.00000000000000      2.19342129509946
|  9> *
| 10>
| 11> %pal
| 12> nprocs 24
| 13> end
| 14>
| 15>
| 16>                          ****END OF INPUT****

CARTESIAN COORDINATES (ANGSTROEM)
---------------------------------
  Sc     0.000000    0.000000   -0.193421
  Br     0.000000    0.000000    2.193421

 Total Charge           Charge          ....    0
 Multiplicity           Mult            ....    1
 Number of Electrons    NEL             ....   56
 Basis Dimension        Dim             ....  152

ORBITAL ENERGIES
----------------

  NO   OCC          E(Eh)            E(eV)
   0   2.0000    -482.222150    -13121.9318
   1   2.0000    -161.319474     -4389.7261
   2   2.0000     -62.263096     -1694.2650
   3   2.0000     -56.064298     -1525.5871
   4   2.0000     -56.064101     -1525.5818
   5   2.0000     -56.064101     -1525.5818
   6   2.0000     -17.431838      -474.3444
   7   2.0000     -14.361749      -390.8030
   8   2.0000     -14.346054      -390.3760
   9   2.0000     -14.346054      -390.3760
  10   2.0000      -8.610694      -234.3089
  11   2.0000      -6.396802      -174.0658
  12   2.0000      -6.396430      -174.0557
  13   2.0000      -6.396430      -174.0557
  14   2.0000      -2.476902       -67.3999
  15   2.0000      -2.476517       -67.3894
  16   2.0000      -2.476517       -67.3894
  17   2.0000      -2.476114       -67.3785
  18   2.0000      -2.475974       -67.3747
  19   2.0000      -1.975839       -53.7653
  20   2.0000      -1.208177       -32.8762
  21   2.0000      -1.165821       -31.7236
  22   2.0000      -1.165820       -31.7236
  23   2.0000      -0.677916       -18.4470
  24   2.0000      -0.271924        -7.3994
  25   2.0000      -0.248366        -6.7584
  26   2.0000      -0.248366        -6.7584
  27   2.0000      -0.104493        -2.8434
  28   0.0000      -0.054324        -1.4782
  29   0.0000      -0.045988        -1.2514
  30   0.0000      -0.045988        -1.2514
  31   0.0000      -0.044674        -1.2156
  32   0.0000      -0.015387        -0.4187

MULLIKEN ATOMIC CHARGES
-----------------------
   0 Sc:    0.442625
   1 Br:   -0.442625
Sum of atomic charges:   -0.0000000

LOEWDIN ATOMIC CHARGES
----------------------
   0 Sc:   -0.195663
   1 Br:    0.195663

  Mayer bond orders larger than 0.100000
B(  0-Sc,  1-Br) :   1.3560

Dispersion correction           -0.000199868
FINAL SINGLE POINT ENERGY     -3335.192794970438

DIPOLE MOMENT
-------------
                                X             Y             Z
Electronic contribution:     -0.00000       0.00001       2.92212
Nuclear contribution   :      0.00000       0.00000      -3.76776
                        -----------------------------------------
Total Dipole Moment    :     -0.00000       0.00001      -0.84565
                        -----------------------------------------
Magnitude (a.u.)       :      0.84565
Magnitude (Debye)      :      2.14946

Rotational constants in cm-1:     0.000000     0.102849     0.102849
Rotational constants in MHz :     0.000000  3083.332036  3083.332036

                             ****ORCA TERMINATED NORMALLY****
TOTAL RUN TIME: 0 days 0 hours 0 minutes 9 seconds 151 msec
