                         Program Version 4.2.0 -  RELEASE  -
|  1> #
|  2> # 05_ScO scanfunc/aug-cc-pvtz
|  3> #
|  4> ! scanfunc d3bj aug-cc-pvtz def2/j grid4 nofinalgrid
|  5>
|  6> *xyz 0 2
|  7>   Sc  0.00000000000000      0.00000000000000      0.16492994527036
|  8>   O   0.00000000000000      0.00000000000000      1.83507005472964
|  9> *
| 10>
| 11> %pal
| 12> nprocs 24
| 13> end
| 14>
| 15>
| 16>                          ****END OF INPUT****

CARTESIAN COORDINATES (ANGSTROEM)
---------------------------------
  Sc     0.000000    0.000000    0.164930
  O      0.000000    0.000000    1.835070

 Total Charge           Charge          ....    0
 Multiplicity           Mult            ....    2
 Number of Electrons    NEL             ....   29
 Basis Dimension        Dim             ....  139

ORBITAL ENERGIES
----------------
                 SPIN UP ORBITALS
  NO   OCC          E(Eh)            E(eV)
   0   1.0000    -161.363631     -4390.9276
   1   1.0000     -18.897189      -514.2187
   2   1.0000     -17.499894      -476.1963
   3   1.0000     -14.422861      -392.4660
   4   1.0000     -14.422861      -392.4660
   5   1.0000     -14.412926      -392.1956
   6   1.0000      -2.041491       -55.5518
   7   1.0000      -1.255335       -34.1594
   8   1.0000      -1.246574       -33.9210
   9   1.0000      -1.246573       -33.9210
  10   1.0000      -0.787475       -21.4283
  11   1.0000      -0.259825        -7.0702
  12   1.0000      -0.259825        -7.0702
  13   1.0000      -0.252464        -6.8699
  14   1.0000      -0.154570        -4.2061
  15   0.0000      -0.101420        -2.7598
  16   0.0000      -0.101342        -2.7577
  17   0.0000      -0.079278        -2.1573
  18   0.0000      -0.079276        -2.1572
  19   0.0000      -0.051742        -1.4080

                 SPIN DOWN ORBITALS
  NO   OCC          E(Eh)            E(eV)
   0   1.0000    -161.363348     -4390.9199
   1   1.0000     -18.897202      -514.2190
   2   1.0000     -17.499908      -476.1967
   3   1.0000     -14.421522      -392.4296
   4   1.0000     -14.421522      -392.4296
   5   1.0000     -14.412378      -392.1808
   6   1.0000      -2.038398       -55.4676
   7   1.0000      -1.250116       -34.0174
   8   1.0000      -1.242400       -33.8074
   9   1.0000      -1.242399       -33.8074
  10   1.0000      -0.791691       -21.5430
  11   1.0000      -0.261720        -7.1218
  12   1.0000      -0.261720        -7.1218
  13   1.0000      -0.252690        -6.8760
  14   0.0000      -0.089893        -2.4461
  15   0.0000      -0.077785        -2.1166
  16   0.0000      -0.077668        -2.1135
  17   0.0000      -0.061642        -1.6774
  18   0.0000      -0.056148        -1.5279

MULLIKEN ATOMIC CHARGES AND SPIN POPULATIONS
--------------------------------------------
   0 Sc:    0.793189    1.039465
   1 O :   -0.793189   -0.039465
Sum of atomic charges         :   -0.0000000

LOEWDIN ATOMIC CHARGES AND SPIN POPULATIONS
-------------------------------------------
   0 Sc:    0.701450    0.963821
   1 O :   -0.701450    0.036179

  Mayer bond orders larger than 0.100000
B(  0-Sc,  1-O ) :   1.9916

Dispersion correction           -0.000107036
FINAL SINGLE POINT ENERGY      -835.987038070145

DIPOLE MOMENT
-------------
                                X             Y             Z
Electronic contribution:      0.00000       0.00000      -2.69671
Nuclear contribution   :      0.00000       0.00000       1.22710
                        -----------------------------------------
Total Dipole Moment    :      0.00000       0.00000      -1.46961
                        -----------------------------------------
Magnitude (a.u.)       :      1.46961
Magnitude (Debye)      :      3.73545

Rotational constants in cm-1:     0.000000     0.512165     0.512165
Rotational constants in MHz :     0.000000 15354.316375 15354.316375

                             ****ORCA TERMINATED NORMALLY****
TOTAL RUN TIME: 0 days 0 hours 0 minutes 9 seconds 868 msec
