                         Program Version 4.2.0 -  RELEASE  -
|  1> #
|  2> # 06_ScS scanfunc/aug-cc-pvtz
|  3> #
|  4> ! scanfunc d3bj aug-cc-pvtz def2/j grid4 nofinalgrid
|  5>
|  6> *xyz 0 2
|  7>   Sc  0.00000000000000      0.00000000000000     -0.07079618847288
|  8>   S   0.00000000000000      0.00000000000000      2.07079618847288
|  9> *
| 10>
| 11> %pal
| 12> nprocs 24
| 13> end
| 14>
| 15>
| 16>                          ****END OF INPUT****

CARTESIAN COORDINATES (ANGSTROEM)
---------------------------------
  Sc     0.000000    0.000000   -0.070796
  S      0.000000    0.000000    2.070796

 Total Charge           Charge          ....    0
 Multiplicity           Mult            ....    2
 Number of Electrons    NEL             ....   37
 Basis Dimension        Dim             ....  143

ORBITAL ENERGIES
----------------
                 SPIN UP ORBITALS
  NO   OCC          E(Eh)            E(eV)
   0   1.0000    -161.396502     -4391.8221
   1   1.0000     -88.587452     -2410.5871
   2   1.0000     -17.533563      -477.1125
   3   1.0000     -14.456841      -393.3906
   4   1.0000     -14.456841      -393.3906
   5   1.0000     -14.446464      -393.1083
   6   1.0000      -7.797397      -212.1780
   7   1.0000      -5.733158      -156.0072
   8   1.0000      -5.733158      -156.0072
   9   1.0000      -5.733080      -156.0050
  10   1.0000      -2.072901       -56.4065
  11   1.0000      -1.277081       -34.7511
  12   1.0000      -1.277081       -34.7511
  13   1.0000      -1.266670       -34.4679
  14   1.0000      -0.578104       -15.7310
  15   1.0000      -0.233073        -6.3422
  16   1.0000      -0.219408        -5.9704
  17   1.0000      -0.219408        -5.9704
  18   1.0000      -0.164296        -4.4707
  19   0.0000      -0.125440        -3.4134
  20   0.0000      -0.125370        -3.4115
  21   0.0000      -0.104222        -2.8360
  22   0.0000      -0.104222        -2.8360
  23   0.0000      -0.089301        -2.4300

                 SPIN DOWN ORBITALS
  NO   OCC          E(Eh)            E(eV)
   0   1.0000    -161.396246     -4391.8151
   1   1.0000     -88.587904     -2410.5994
   2   1.0000     -17.533254      -477.1041
   3   1.0000     -14.455008      -393.3408
   4   1.0000     -14.455008      -393.3408
   5   1.0000     -14.445261      -393.0755
   6   1.0000      -7.798293      -212.2023
   7   1.0000      -5.734140      -156.0339
   8   1.0000      -5.734140      -156.0339
   9   1.0000      -5.733729      -156.0227
  10   1.0000      -2.063743       -56.1573
  11   1.0000      -1.268334       -34.5131
  12   1.0000      -1.268334       -34.5131
  13   1.0000      -1.253313       -34.1044
  14   1.0000      -0.579382       -15.7658
  15   1.0000      -0.229818        -6.2537
  16   1.0000      -0.219430        -5.9710
  17   1.0000      -0.219430        -5.9710
  18   0.0000      -0.101099        -2.7510
  19   0.0000      -0.098900        -2.6912
  20   0.0000      -0.098851        -2.6899
  21   0.0000      -0.076891        -2.0923
  22   0.0000      -0.076891        -2.0923

MULLIKEN ATOMIC CHARGES AND SPIN POPULATIONS
--------------------------------------------
   0 Sc:    0.297225    1.067096
   1 S :   -0.297225   -0.067096
Sum of atomic charges         :   -0.0000000

LOEWDIN ATOMIC CHARGES AND SPIN POPULATIONS
-------------------------------------------
   0 Sc:    0.092006    0.953440
   1 S :   -0.092006    0.046560

  Mayer bond orders larger than 0.100000
B(  0-Sc,  1-S ) :   2.4955

Dispersion correction           -0.000214440
FINAL SINGLE POINT ENERGY     -1159.031916126697

DIPOLE MOMENT
-------------
                                X             Y             Z
Electronic contribution:     -0.00000       0.00000      -4.52167
Nuclear contribution   :      0.00000       0.00000       2.42233
                        -----------------------------------------
Total Dipole Moment    :     -0.00000       0.00000      -2.09934
                        -----------------------------------------
Magnitude (a.u.)       :      2.09934
Magnitude (Debye)      :      5.33610

Rotational constants in cm-1:     0.000000     0.196398     0.196398
Rotational constants in MHz :     0.000000  5887.862686  5887.862686

                             ****ORCA TERMINATED NORMALLY****
TOTAL RUN TIME: 0 days 0 hours 0 minutes 10 seconds 703 msec
