                         Program Version 4.2.0 -  RELEASE  -
|  1> #
|  2> # 07_TiH scanfunc/aug-cc-pvtz
|  3> #
|  4> ! scanfunc d3bj aug-cc-pvtz def2/j grid4 nofinalgrid
|  5>
|  6> *xyz 0 4
|  7>   Ti  0.00000000000000      0.00000000000000      0.11662089429905
|  8>   H   0.00000000000000      0.00000000000000      1.88337910570095
|  9> *
| 10>
| 11> %pal
| 12> nprocs 24
| 13> end
| 14>
| 15>
| 16>                          ****END OF INPUT****

CARTESIAN COORDINATES (ANGSTROEM)
---------------------------------
  Ti     0.000000    0.000000    0.116621
  H      0.000000    0.000000    1.883379

 Total Charge           Charge          ....    0
 Multiplicity           Mult            ....    4
 Number of Electrons    NEL             ....   23
 Basis Dimension        Dim             ....  116

ORBITAL ENERGIES
----------------
                 SPIN UP ORBITALS
  NO   OCC          E(Eh)            E(eV)
   0   1.0000    -178.498389     -4857.1881
   1   1.0000     -19.705893      -536.2246
   2   1.0000     -16.423149      -446.8966
   3   1.0000     -16.415575      -446.6905
   4   1.0000     -16.412921      -446.6183
   5   1.0000      -2.267176       -61.6930
   6   1.0000      -1.396315       -37.9957
   7   1.0000      -1.395653       -37.9776
   8   1.0000      -1.395509       -37.9737
   9   1.0000      -0.232873        -6.3368
  10   1.0000      -0.152318        -4.1448
  11   1.0000      -0.149317        -4.0631
  12   1.0000      -0.135427        -3.6851
  13   0.0000      -0.093930        -2.5560
  14   0.0000      -0.084560        -2.3010
  15   0.0000      -0.062312        -1.6956
  16   0.0000      -0.047402        -1.2899
  17   0.0000      -0.045591        -1.2406

                 SPIN DOWN ORBITALS
  NO   OCC          E(Eh)            E(eV)
   0   1.0000    -178.498595     -4857.1937
   1   1.0000     -19.682377      -535.5847
   2   1.0000     -16.402411      -446.3323
   3   1.0000     -16.396787      -446.1792
   4   1.0000     -16.388936      -445.9656
   5   1.0000      -2.211576       -60.1800
   6   1.0000      -1.340524       -36.4775
   7   1.0000      -1.325932       -36.0804
   8   1.0000      -1.311466       -35.6868
   9   1.0000      -0.224288        -6.1032
  10   0.0000      -0.045504        -1.2382
  11   0.0000      -0.039455        -1.0736
  12   0.0000      -0.024265        -0.6603
  13   0.0000      -0.016093        -0.4379
  14   0.0000      -0.004679        -0.1273

MULLIKEN ATOMIC CHARGES AND SPIN POPULATIONS
--------------------------------------------
   0 Ti:    0.246847    3.117270
   1 H :   -0.246847   -0.117270
Sum of atomic charges         :   -0.0000000

LOEWDIN ATOMIC CHARGES AND SPIN POPULATIONS
-------------------------------------------
   0 Ti:    0.672862    2.893658
   1 H :   -0.672862    0.106342

  Mayer bond orders larger than 0.100000
B(  0-Ti,  1-H ) :   0.9576

Dispersion correction           -0.000091744
FINAL SINGLE POINT ENERGY      -850.001392556002

DIPOLE MOMENT
-------------
                                X             Y             Z
Electronic contribution:      0.00000      -0.00000      -2.87850
Nuclear contribution   :      0.00000       0.00000       1.75604
                        -----------------------------------------
Total Dipole Moment    :      0.00000      -0.00000      -1.12246
                        -----------------------------------------
Magnitude (a.u.)       :      1.12246
Magnitude (Debye)      :      2.85306

Rotational constants in cm-1:     0.000000     5.470494     5.470494
Rotational constants in MHz :     0.000000 164001.275229 164001.275229

                             ****ORCA TERMINATED NORMALLY****
TOTAL RUN TIME: 0 days 0 hours 0 minutes 13 seconds 703 msec
