                         Program Version 4.2.0 -  RELEASE  -
|  1> #
|  2> # 08_TiF scanfunc/aug-cc-pvtz
|  3> #
|  4> ! scanfunc d3bj aug-cc-pvtz def2/j grid4 nofinalgrid
|  5>
|  6> *xyz 0 4
|  7>   Ti  0.00000000000000      0.00000000000000      0.11041057480115
|  8>   F   0.00000000000000      0.00000000000000      1.88958942519885
|  9> *
| 10>
| 11> %pal
| 12> nprocs 24
| 13> end
| 14>
| 15>
| 16>                          ****END OF INPUT****

CARTESIAN COORDINATES (ANGSTROEM)
---------------------------------
  Ti     0.000000    0.000000    0.110411
  F      0.000000    0.000000    1.889589

 Total Charge           Charge          ....    0
 Multiplicity           Mult            ....    4
 Number of Electrons    NEL             ....   31
 Basis Dimension        Dim             ....  139

ORBITAL ENERGIES
----------------
                 SPIN UP ORBITALS
  NO   OCC          E(Eh)            E(eV)
   0   1.0000    -178.522788     -4857.8520
   1   1.0000     -24.458134      -665.5397
   2   1.0000     -19.736807      -537.0658
   3   1.0000     -16.455274      -447.7708
   4   1.0000     -16.447259      -447.5527
   5   1.0000     -16.442498      -447.4231
   6   1.0000      -2.294141       -62.4267
   7   1.0000      -1.434614       -39.0378
   8   1.0000      -1.421425       -38.6789
   9   1.0000      -1.418856       -38.6090
  10   1.0000      -1.058594       -28.8058
  11   1.0000      -0.363925        -9.9029
  12   1.0000      -0.355643        -9.6775
  13   1.0000      -0.346298        -9.4233
  14   1.0000      -0.172001        -4.6804
  15   1.0000      -0.166145        -4.5210
  16   1.0000      -0.137090        -3.7304
  17   0.0000      -0.103454        -2.8151
  18   0.0000      -0.097833        -2.6622
  19   0.0000      -0.067797        -1.8449
  20   0.0000      -0.036747        -0.9999
  21   0.0000      -0.034400        -0.9361

                 SPIN DOWN ORBITALS
  NO   OCC          E(Eh)            E(eV)
   0   1.0000    -178.522586     -4857.8465
   1   1.0000     -24.459172      -665.5679
   2   1.0000     -19.715275      -536.4799
   3   1.0000     -16.435862      -447.2425
   4   1.0000     -16.431128      -447.1137
   5   1.0000     -16.418541      -446.7712
   6   1.0000      -2.246656       -61.1346
   7   1.0000      -1.380013       -37.5521
   8   1.0000      -1.374819       -37.4107
   9   1.0000      -1.337638       -36.3990
  10   1.0000      -1.057681       -28.7810
  11   1.0000      -0.364629        -9.9221
  12   1.0000      -0.349896        -9.5212
  13   1.0000      -0.342152        -9.3104
  14   0.0000      -0.065062        -1.7704
  15   0.0000      -0.049906        -1.3580
  16   0.0000      -0.041267        -1.1229
  17   0.0000      -0.022408        -0.6098
  18   0.0000      -0.020794        -0.5658

MULLIKEN ATOMIC CHARGES AND SPIN POPULATIONS
--------------------------------------------
   0 Ti:    0.565897    3.019178
   1 F :   -0.565897   -0.019178
Sum of atomic charges         :    0.0000000

LOEWDIN ATOMIC CHARGES AND SPIN POPULATIONS
-------------------------------------------
   0 Ti:    0.287739    2.903799
   1 F :   -0.287739    0.096201

  Mayer bond orders larger than 0.100000
B(  0-Ti,  1-F ) :   0.7792

Dispersion correction           -0.000080513
FINAL SINGLE POINT ENERGY      -949.365534909820

DIPOLE MOMENT
-------------
                                X             Y             Z
Electronic contribution:      0.00000      -0.00000      -1.62206
Nuclear contribution   :      0.00000       0.00000       0.66059
                        -----------------------------------------
Total Dipole Moment    :      0.00000      -0.00000      -0.96146
                        -----------------------------------------
Magnitude (a.u.)       :      0.96146
Magnitude (Debye)      :      2.44385

Rotational constants in cm-1:     0.000000     0.391496     0.391496
Rotational constants in MHz :     0.000000 11736.757371 11736.757371

                             ****ORCA TERMINATED NORMALLY****
TOTAL RUN TIME: 0 days 0 hours 0 minutes 10 seconds 420 msec
