                         Program Version 4.2.0 -  RELEASE  -
|  1> #
|  2> # 09_TiCl scanfunc/aug-cc-pvtz
|  3> #
|  4> ! scanfunc d3bj aug-cc-pvtz def2/j grid4 nofinalgrid
|  5>
|  6> *xyz 0 4
|  7>   Ti  0.00000000000000      0.00000000000000     -0.11680209456005
|  8>   Cl  0.00000000000000      0.00000000000000      2.11680209456005
|  9> *
| 10>
| 11> %pal
| 12> nprocs 24
| 13> end
| 14>
| 15>
| 16>                          ****END OF INPUT****

CARTESIAN COORDINATES (ANGSTROEM)
---------------------------------
  Ti     0.000000    0.000000   -0.116802
  Cl     0.000000    0.000000    2.116802

 Total Charge           Charge          ....    0
 Multiplicity           Mult            ....    4
 Number of Electrons    NEL             ....   39
 Basis Dimension        Dim             ....  143

ORBITAL ENERGIES
----------------
                 SPIN UP ORBITALS
  NO   OCC          E(Eh)            E(eV)
   0   1.0000    -178.525239     -4857.9187
   1   1.0000    -101.236866     -2754.7952
   2   1.0000     -19.734645      -537.0070
   3   1.0000     -16.453332      -447.7179
   4   1.0000     -16.443572      -447.4523
   5   1.0000     -16.441443      -447.3944
   6   1.0000      -9.293201      -252.8809
   7   1.0000      -7.047446      -191.7708
   8   1.0000      -7.047220      -191.7646
   9   1.0000      -7.046473      -191.7443
  10   1.0000      -2.294335       -62.4320
  11   1.0000      -1.428566       -38.8733
  12   1.0000      -1.421988       -38.6943
  13   1.0000      -1.419075       -38.6150
  14   1.0000      -0.729639       -19.8545
  15   1.0000      -0.308404        -8.3921
  16   1.0000      -0.281688        -7.6651
  17   1.0000      -0.279058        -7.5936
  18   1.0000      -0.173259        -4.7146
  19   1.0000      -0.169798        -4.6204
  20   1.0000      -0.148436        -4.0392
  21   0.0000      -0.115607        -3.1458
  22   0.0000      -0.104093        -2.8325
  23   0.0000      -0.082029        -2.2321
  24   0.0000      -0.041774        -1.1367
  25   0.0000      -0.041248        -1.1224

                 SPIN DOWN ORBITALS
  NO   OCC          E(Eh)            E(eV)
   0   1.0000    -178.525281     -4857.9199
   1   1.0000    -101.237342     -2754.8081
   2   1.0000     -19.711689      -536.3823
   3   1.0000     -16.432417      -447.1488
   4   1.0000     -16.426308      -446.9826
   5   1.0000     -16.417000      -446.7293
   6   1.0000      -9.292023      -252.8488
   7   1.0000      -7.047963      -191.7848
   8   1.0000      -7.047323      -191.7674
   9   1.0000      -7.046086      -191.7338
  10   1.0000      -2.241554       -60.9958
  11   1.0000      -1.369482       -37.2655
  12   1.0000      -1.361201       -37.0402
  13   1.0000      -1.337524       -36.3959
  14   1.0000      -0.732100       -19.9215
  15   1.0000      -0.304530        -8.2867
  16   1.0000      -0.279759        -7.6126
  17   1.0000      -0.275903        -7.5077
  18   0.0000      -0.067841        -1.8461
  19   0.0000      -0.053727        -1.4620
  20   0.0000      -0.050321        -1.3693
  21   0.0000      -0.039010        -1.0615
  22   0.0000      -0.021959        -0.5975

MULLIKEN ATOMIC CHARGES AND SPIN POPULATIONS
--------------------------------------------
   0 Ti:    0.372129    3.000451
   1 Cl:   -0.372129   -0.000451
Sum of atomic charges         :   -0.0000000

LOEWDIN ATOMIC CHARGES AND SPIN POPULATIONS
-------------------------------------------
   0 Ti:   -0.148699    2.897106
   1 Cl:    0.148699    0.102894

  Mayer bond orders larger than 0.100000
B(  0-Ti,  1-Cl) :   1.1866

Dispersion correction           -0.000195662
FINAL SINGLE POINT ENERGY     -1309.728320040790

DIPOLE MOMENT
-------------
                                X             Y             Z
Electronic contribution:     -0.00000       0.00000      -3.30701
Nuclear contribution   :      0.00000       0.00000       1.73863
                        -----------------------------------------
Total Dipole Moment    :     -0.00000       0.00000      -1.56837
                        -----------------------------------------
Magnitude (a.u.)       :      1.56837
Magnitude (Debye)      :      3.98648

Rotational constants in cm-1:     0.000000     0.165851     0.165851
Rotational constants in MHz :     0.000000  4972.077671  4972.077671

                             ****ORCA TERMINATED NORMALLY****
TOTAL RUN TIME: 0 days 0 hours 0 minutes 11 seconds 278 msec
