                         Program Version 4.2.0 -  RELEASE  -
|  1> #
|  2> # 11_TiO scanfunc/aug-cc-pvtz
|  3> #
|  4> ! scanfunc d3bj aug-cc-pvtz def2/j grid4 nofinalgrid
|  5>
|  6> *xyz 0 3
|  7>   Ti  0.00000000000000      0.00000000000000      0.18878211244980
|  8>   O   0.00000000000000      0.00000000000000      1.81121788755020
|  9> *
| 10>
| 11> %pal
| 12> nprocs 24
| 13> end
| 14>
| 15>
| 16>                          ****END OF INPUT****

CARTESIAN COORDINATES (ANGSTROEM)
---------------------------------
  Ti     0.000000    0.000000    0.188782
  O      0.000000    0.000000    1.811218

 Total Charge           Charge          ....    0
 Multiplicity           Mult            ....    3
 Number of Electrons    NEL             ....   30
 Basis Dimension        Dim             ....  139

ORBITAL ENERGIES
----------------
                 SPIN UP ORBITALS
  NO   OCC          E(Eh)            E(eV)
   0   1.0000    -178.540148     -4858.3244
   1   1.0000     -19.758043      -537.6437
   2   1.0000     -18.922892      -514.9181
   3   1.0000     -16.469660      -448.1622
   4   1.0000     -16.469660      -448.1622
   5   1.0000     -16.468473      -448.1299
   6   1.0000      -2.310807       -62.8803
   7   1.0000      -1.454152       -39.5695
   8   1.0000      -1.430199       -38.9177
   9   1.0000      -1.430199       -38.9177
  10   1.0000      -0.816398       -22.2153
  11   1.0000      -0.284957        -7.7541
  12   1.0000      -0.281475        -7.6593
  13   1.0000      -0.281475        -7.6593
  14   1.0000      -0.178771        -4.8646
  15   1.0000      -0.167767        -4.5652
  16   0.0000      -0.097571        -2.6550
  17   0.0000      -0.094729        -2.5777
  18   0.0000      -0.094729        -2.5777
  19   0.0000      -0.065999        -1.7959
  20   0.0000      -0.010264        -0.2793

                 SPIN DOWN ORBITALS
  NO   OCC          E(Eh)            E(eV)
   0   1.0000    -178.539902     -4858.3177
   1   1.0000     -19.744629      -537.2787
   2   1.0000     -18.922655      -514.9116
   3   1.0000     -16.461912      -447.9514
   4   1.0000     -16.454408      -447.7472
   5   1.0000     -16.454408      -447.7472
   6   1.0000      -2.280628       -62.0590
   7   1.0000      -1.426928       -38.8287
   8   1.0000      -1.385710       -37.7071
   9   1.0000      -1.385710       -37.7071
  10   1.0000      -0.830378       -22.5957
  11   1.0000      -0.287265        -7.8169
  12   1.0000      -0.287265        -7.8169
  13   1.0000      -0.284680        -7.7465
  14   0.0000      -0.083304        -2.2668
  15   0.0000      -0.076357        -2.0778
  16   0.0000      -0.047792        -1.3005
  17   0.0000      -0.046291        -1.2596
  18   0.0000      -0.046291        -1.2596

MULLIKEN ATOMIC CHARGES AND SPIN POPULATIONS
--------------------------------------------
   0 Ti:    0.481055    2.193837
   1 O :   -0.481055   -0.193837
Sum of atomic charges         :   -0.0000000

LOEWDIN ATOMIC CHARGES AND SPIN POPULATIONS
-------------------------------------------
   0 Ti:    0.594978    2.022830
   1 O :   -0.594978   -0.022830

  Mayer bond orders larger than 0.100000
B(  0-Ti,  1-O ) :   2.3002

Dispersion correction           -0.000108213
FINAL SINGLE POINT ENERGY      -924.732469612297

DIPOLE MOMENT
-------------
                                X             Y             Z
Electronic contribution:      0.00000       0.00000      -2.89721
Nuclear contribution   :      0.00000       0.00000       1.49807
                        -----------------------------------------
Total Dipole Moment    :      0.00000       0.00000      -1.39913
                        -----------------------------------------
Magnitude (a.u.)       :      1.39913
Magnitude (Debye)      :      3.55631

Rotational constants in cm-1:     0.000000     0.533983     0.533983
Rotational constants in MHz :     0.000000 16008.413204 16008.413204

                             ****ORCA TERMINATED NORMALLY****
TOTAL RUN TIME: 0 days 0 hours 0 minutes 9 seconds 398 msec
