                         Program Version 4.2.0 -  RELEASE  -
|  1> #
|  2> # 14_VF scanfunc/aug-cc-pvtz
|  3> #
|  4> ! scanfunc d3bj aug-cc-pvtz def2/j grid4 nofinalgrid
|  5>
|  6> *xyz 0 5
|  7>   V   0.00000000000000      0.00000000000000      0.09137228252025
|  8>   F   0.00000000000000      0.00000000000000      1.90862771747975
|  9> *
| 10>
| 11> %pal
| 12> nprocs 24
| 13> end
| 14>
| 15>
| 16>                          ****END OF INPUT****

CARTESIAN COORDINATES (ANGSTROEM)
---------------------------------
  V      0.000000    0.000000    0.091372
  F      0.000000    0.000000    1.908628

 Total Charge           Charge          ....    0
 Multiplicity           Mult            ....    5
 Number of Electrons    NEL             ....   32
 Basis Dimension        Dim             ....  139

ORBITAL ENERGIES
----------------
                 SPIN UP ORBITALS
  NO   OCC          E(Eh)            E(eV)
   0   1.0000    -196.424809     -5344.9908
   1   1.0000     -24.439757      -665.0396
   2   1.0000     -22.061075      -600.3124
   3   1.0000     -18.573052      -505.3984
   4   1.0000     -18.573052      -505.3984
   5   1.0000     -18.568941      -505.2866
   6   1.0000      -2.613105       -71.1062
   7   1.0000      -1.649074       -44.8736
   8   1.0000      -1.649074       -44.8736
   9   1.0000      -1.645159       -44.7671
  10   1.0000      -1.048331       -28.5265
  11   1.0000      -0.349456        -9.5092
  12   1.0000      -0.338220        -9.2034
  13   1.0000      -0.338220        -9.2034
  14   1.0000      -0.224291        -6.1033
  15   1.0000      -0.190008        -5.1704
  16   1.0000      -0.190008        -5.1704
  17   1.0000      -0.180021        -4.8986
  18   0.0000      -0.138330        -3.7642
  19   0.0000      -0.094850        -2.5810
  20   0.0000      -0.044078        -1.1994
  21   0.0000      -0.044078        -1.1994
  22   0.0000       0.016143         0.4393

                 SPIN DOWN ORBITALS
  NO   OCC          E(Eh)            E(eV)
   0   1.0000    -196.426531     -5345.0376
   1   1.0000     -24.438786      -665.0132
   2   1.0000     -22.024841      -599.3264
   3   1.0000     -18.544570      -504.6234
   4   1.0000     -18.544570      -504.6234
   5   1.0000     -18.538333      -504.4537
   6   1.0000      -2.470913       -67.2370
   7   1.0000      -1.516241       -41.2590
   8   1.0000      -1.516241       -41.2590
   9   1.0000      -1.504634       -40.9432
  10   1.0000      -1.041761       -28.3478
  11   1.0000      -0.349971        -9.5232
  12   1.0000      -0.321400        -8.7457
  13   1.0000      -0.321400        -8.7457
  14   0.0000      -0.081648        -2.2218
  15   0.0000      -0.072416        -1.9705
  16   0.0000      -0.042256        -1.1498
  17   0.0000      -0.034752        -0.9456
  18   0.0000      -0.025571        -0.6958

MULLIKEN ATOMIC CHARGES AND SPIN POPULATIONS
--------------------------------------------
   0 V :    0.585008    3.990889
   1 F :   -0.585008    0.009111
Sum of atomic charges         :    0.0000000

LOEWDIN ATOMIC CHARGES AND SPIN POPULATIONS
-------------------------------------------
   0 V :    0.375569    3.839274
   1 F :   -0.375569    0.160726

  Mayer bond orders larger than 0.100000
B(  0-V ,  1-F ) :   0.7946

Dispersion correction           -0.000086067
FINAL SINGLE POINT ENERGY     -1043.946178439958

DIPOLE MOMENT
-------------
                                X             Y             Z
Electronic contribution:      0.00000      -0.00000      -2.20132
Nuclear contribution   :      0.00000       0.00000       1.05599
                        -----------------------------------------
Total Dipole Moment    :      0.00000      -0.00000      -1.14532
                        -----------------------------------------
Magnitude (a.u.)       :      1.14532
Magnitude (Debye)      :      2.91118

Rotational constants in cm-1:     0.000000     0.368902     0.368902
Rotational constants in MHz :     0.000000 11059.411965 11059.411965

                             ****ORCA TERMINATED NORMALLY****
TOTAL RUN TIME: 0 days 0 hours 0 minutes 8 seconds 795 msec
