                         Program Version 4.2.0 -  RELEASE  -
|  1> #
|  2> # 15_VCl scanfunc/aug-cc-pvtz
|  3> #
|  4> ! scanfunc d3bj aug-cc-pvtz def2/j grid4 nofinalgrid
|  5>
|  6> *xyz 0 5
|  7>   V   0.00000000000000      0.00000000000000     -0.10591307408469
|  8>   Cl  0.00000000000000      0.00000000000000      2.10591307408469
|  9> *
| 10>
| 11> %pal
| 12> nprocs 24
| 13> end
| 14>
| 15>
| 16>                          ****END OF INPUT****

CARTESIAN COORDINATES (ANGSTROEM)
---------------------------------
  V      0.000000    0.000000   -0.105913
  Cl     0.000000    0.000000    2.105913

 Total Charge           Charge          ....    0
 Multiplicity           Mult            ....    5
 Number of Electrons    NEL             ....   40
 Basis Dimension        Dim             ....  143

ORBITAL ENERGIES
----------------
                 SPIN UP ORBITALS
  NO   OCC          E(Eh)            E(eV)
   0   1.0000    -196.429434     -5345.1166
   1   1.0000    -101.236397     -2754.7824
   2   1.0000     -22.063326      -600.3736
   3   1.0000     -18.575501      -505.4651
   4   1.0000     -18.575501      -505.4651
   5   1.0000     -18.570810      -505.3374
   6   1.0000      -9.291810      -252.8430
   7   1.0000      -7.047134      -191.7623
   8   1.0000      -7.045700      -191.7232
   9   1.0000      -7.045700      -191.7232
  10   1.0000      -2.617734       -71.2322
  11   1.0000      -1.652191       -44.9584
  12   1.0000      -1.652191       -44.9584
  13   1.0000      -1.651178       -44.9308
  14   1.0000      -0.730841       -19.8872
  15   1.0000      -0.314318        -8.5530
  16   1.0000      -0.287226        -7.8158
  17   1.0000      -0.287226        -7.8158
  18   1.0000      -0.229598        -6.2477
  19   1.0000      -0.197754        -5.3812
  20   1.0000      -0.197754        -5.3812
  21   1.0000      -0.182931        -4.9778
  22   0.0000      -0.142815        -3.8862
  23   0.0000      -0.114432        -3.1138
  24   0.0000      -0.048968        -1.3325
  25   0.0000      -0.048968        -1.3325
  26   0.0000       0.013419         0.3652

                 SPIN DOWN ORBITALS
  NO   OCC          E(Eh)            E(eV)
   0   1.0000    -196.431152     -5345.1634
   1   1.0000    -101.236497     -2754.7851
   2   1.0000     -22.026973      -599.3844
   3   1.0000     -18.546970      -504.6887
   4   1.0000     -18.546970      -504.6887
   5   1.0000     -18.539284      -504.4796
   6   1.0000      -9.291649      -252.8386
   7   1.0000      -7.047863      -191.7821
   8   1.0000      -7.045366      -191.7142
   9   1.0000      -7.045366      -191.7142
  10   1.0000      -2.471338       -67.2485
  11   1.0000      -1.517994       -41.3067
  12   1.0000      -1.517994       -41.3067
  13   1.0000      -1.499947       -40.8156
  14   1.0000      -0.730617       -19.8811
  15   1.0000      -0.306963        -8.3529
  16   1.0000      -0.275337        -7.4923
  17   1.0000      -0.275337        -7.4923
  18   0.0000      -0.085100        -2.3157
  19   0.0000      -0.077435        -2.1071
  20   0.0000      -0.050161        -1.3650
  21   0.0000      -0.046368        -1.2617
  22   0.0000      -0.038291        -1.0420

MULLIKEN ATOMIC CHARGES AND SPIN POPULATIONS
--------------------------------------------
   0 V :    0.387828    4.026060
   1 Cl:   -0.387828   -0.026060
Sum of atomic charges         :   -0.0000000

LOEWDIN ATOMIC CHARGES AND SPIN POPULATIONS
-------------------------------------------
   0 V :   -0.003210    3.836640
   1 Cl:    0.003210    0.163360

  Mayer bond orders larger than 0.100000
B(  0-V ,  1-Cl) :   1.1070

Dispersion correction           -0.000211159
FINAL SINGLE POINT ENERGY     -1404.312669348161

DIPOLE MOMENT
-------------
                                X             Y             Z
Electronic contribution:      0.00000       0.00000      -3.96403
Nuclear contribution   :      0.00000       0.00000       2.44617
                        -----------------------------------------
Total Dipole Moment    :      0.00000       0.00000      -1.51785
                        -----------------------------------------
Magnitude (a.u.)       :      1.51785
Magnitude (Debye)      :      3.85808

Rotational constants in cm-1:     0.000000     0.164840     0.164840
Rotational constants in MHz :     0.000000  4941.766851  4941.766851

                             ****ORCA TERMINATED NORMALLY****
TOTAL RUN TIME: 0 days 0 hours 0 minutes 8 seconds 585 msec
