                         Program Version 4.2.0 -  RELEASE  -
|  1> #
|  2> # 18_VS scanfunc/aug-cc-pvtz
|  3> #
|  4> ! scanfunc d3bj aug-cc-pvtz def2/j grid4 nofinalgrid
|  5>
|  6> *xyz 0 4
|  7>   V   0.00000000000000      0.00000000000000     -0.02784157502378
|  8>   S   0.00000000000000      0.00000000000000      2.02784157502377
|  9> *
| 10>
| 11> %pal
| 12> nprocs 24
| 13> end
| 14>
| 15>
| 16>                          ****END OF INPUT****

CARTESIAN COORDINATES (ANGSTROEM)
---------------------------------
  V      0.000000    0.000000   -0.027842
  S      0.000000    0.000000    2.027842

 Total Charge           Charge          ....    0
 Multiplicity           Mult            ....    4
 Number of Electrons    NEL             ....   39
 Basis Dimension        Dim             ....  143

ORBITAL ENERGIES
----------------
                 SPIN UP ORBITALS
  NO   OCC          E(Eh)            E(eV)
   0   1.0000    -196.451474     -5345.7164
   1   1.0000     -88.610667     -2411.2188
   2   1.0000     -22.086573      -601.0062
   3   1.0000     -18.603850      -506.2365
   4   1.0000     -18.598867      -506.1009
   5   1.0000     -18.594045      -505.9697
   6   1.0000      -7.818051      -212.7400
   7   1.0000      -5.755033      -156.6024
   8   1.0000      -5.754543      -156.5891
   9   1.0000      -5.753621      -156.5640
  10   1.0000      -2.626732       -71.4770
  11   1.0000      -1.664629       -45.2968
  12   1.0000      -1.661058       -45.1997
  13   1.0000      -1.658328       -45.1254
  14   1.0000      -0.594355       -16.1732
  15   1.0000      -0.269420        -7.3313
  16   1.0000      -0.256049        -6.9674
  17   1.0000      -0.246973        -6.7205
  18   1.0000      -0.244598        -6.6558
  19   1.0000      -0.194799        -5.3007
  20   1.0000      -0.168333        -4.5806
  21   0.0000      -0.151409        -4.1201
  22   0.0000      -0.148399        -4.0382
  23   0.0000      -0.111699        -3.0395
  24   0.0000      -0.038390        -1.0447
  25   0.0000      -0.034997        -0.9523

                 SPIN DOWN ORBITALS
  NO   OCC          E(Eh)            E(eV)
   0   1.0000    -196.452962     -5345.7569
   1   1.0000     -88.613336     -2411.2915
   2   1.0000     -22.051947      -600.0640
   3   1.0000     -18.579568      -505.5758
   4   1.0000     -18.569288      -505.2960
   5   1.0000     -18.568480      -505.2740
   6   1.0000      -7.823199      -212.8801
   7   1.0000      -5.762406      -156.8030
   8   1.0000      -5.758988      -156.7100
   9   1.0000      -5.755759      -156.6222
  10   1.0000      -2.508192       -68.2514
  11   1.0000      -1.565789       -42.6073
  12   1.0000      -1.539642       -41.8958
  13   1.0000      -1.537291       -41.8318
  14   1.0000      -0.603023       -16.4091
  15   1.0000      -0.251942        -6.8557
  16   1.0000      -0.242290        -6.5931
  17   1.0000      -0.225875        -6.1464
  18   0.0000      -0.108782        -2.9601
  19   0.0000      -0.090926        -2.4742
  20   0.0000      -0.086235        -2.3466
  21   0.0000      -0.069483        -1.8907
  22   0.0000      -0.059901        -1.6300

MULLIKEN ATOMIC CHARGES AND SPIN POPULATIONS
--------------------------------------------
   0 V :    0.226099    3.356040
   1 S :   -0.226099   -0.356040
Sum of atomic charges         :   -0.0000000

LOEWDIN ATOMIC CHARGES AND SPIN POPULATIONS
-------------------------------------------
   0 V :    0.061929    3.102217
   1 S :   -0.061929   -0.102217

  Mayer bond orders larger than 0.100000
B(  0-V ,  1-S ) :   2.4387

Dispersion correction           -0.000234319
FINAL SINGLE POINT ENERGY     -1342.326519225344

DIPOLE MOMENT
-------------
                                X             Y             Z
Electronic contribution:     -0.00081      -0.00068      -5.52771
Nuclear contribution   :      0.00000       0.00000       3.63475
                        -----------------------------------------
Total Dipole Moment    :     -0.00081      -0.00068      -1.89296
                        -----------------------------------------
Magnitude (a.u.)       :      1.89296
Magnitude (Debye)      :      4.81153

Rotational constants in cm-1:     0.000000     0.202740     0.202740
Rotational constants in MHz :     0.000000  6078.002656  6078.002656

                             ****ORCA TERMINATED NORMALLY****
TOTAL RUN TIME: 0 days 0 hours 0 minutes 10 seconds 431 msec
