                         Program Version 4.2.0 -  RELEASE  -
|  1> #
|  2> # 23_CrO scanfunc/aug-cc-pvtz
|  3> #
|  4> ! scanfunc d3bj aug-cc-pvtz def2/j grid4 nofinalgrid
|  5>
|  6> *xyz 0 5
|  7>   Cr  0.00000000000000      0.00000000000000      0.19264925280896
|  8>   O   0.00000000000000      0.00000000000000      1.80735074719104
|  9> *
| 10>
| 11> %pal
| 12> nprocs 24
| 13> end
| 14>
| 15>
| 16>                          ****END OF INPUT****

CARTESIAN COORDINATES (ANGSTROEM)
---------------------------------
  Cr     0.000000    0.000000    0.192649
  O      0.000000    0.000000    1.807351

 Total Charge           Charge          ....    0
 Multiplicity           Mult            ....    5
 Number of Electrons    NEL             ....   32
 Basis Dimension        Dim             ....  139

ORBITAL ENERGIES
----------------
                 SPIN UP ORBITALS
  NO   OCC          E(Eh)            E(eV)
   0   1.0000    -215.123050     -5853.7958
   1   1.0000     -24.669264      -671.2848
   2   1.0000     -20.886112      -568.3400
   3   1.0000     -20.885335      -568.3189
   4   1.0000     -20.881580      -568.2167
   5   1.0000     -18.946108      -515.5498
   6   1.0000      -2.917037       -79.3766
   7   1.0000      -1.860425       -50.6247
   8   1.0000      -1.857947       -50.5573
   9   1.0000      -1.855337       -50.4863
  10   1.0000      -0.831786       -22.6340
  11   1.0000      -0.326116        -8.8741
  12   1.0000      -0.315551        -8.5866
  13   1.0000      -0.293346        -7.9824
  14   1.0000      -0.239790        -6.5250
  15   1.0000      -0.231380        -6.2962
  16   1.0000      -0.199306        -5.4234
  17   1.0000      -0.177119        -4.8196
  18   0.0000      -0.144059        -3.9200
  19   0.0000      -0.104580        -2.8458
  20   0.0000      -0.029221        -0.7951
  21   0.0000      -0.022453        -0.6110
  22   0.0000       0.017840         0.4855

                 SPIN DOWN ORBITALS
  NO   OCC          E(Eh)            E(eV)
   0   1.0000    -215.124603     -5853.8380
   1   1.0000     -24.550065      -668.0412
   2   1.0000     -20.818575      -566.5022
   3   1.0000     -20.809487      -566.2549
   4   1.0000     -20.795205      -565.8663
   5   1.0000     -18.943768      -515.4861
   6   1.0000      -2.780918       -75.6726
   7   1.0000      -1.752760       -47.6950
   8   1.0000      -1.713354       -46.6227
   9   1.0000      -1.682809       -45.7915
  10   1.0000      -0.867298       -23.6004
  11   1.0000      -0.314436        -8.5562
  12   1.0000      -0.311337        -8.4719
  13   1.0000      -0.285024        -7.7559
  14   0.0000      -0.081646        -2.2217
  15   0.0000      -0.071617        -1.9488
  16   0.0000      -0.058400        -1.5892
  17   0.0000      -0.056990        -1.5508
  18   0.0000      -0.040419        -1.0998

MULLIKEN ATOMIC CHARGES AND SPIN POPULATIONS
--------------------------------------------
   0 Cr:    0.548704    4.356844
   1 O :   -0.548704   -0.356844
Sum of atomic charges         :    0.0000000

LOEWDIN ATOMIC CHARGES AND SPIN POPULATIONS
-------------------------------------------
   0 Cr:    0.555599    4.132879
   1 O :   -0.555599   -0.132879

  Mayer bond orders larger than 0.100000
B(  0-Cr,  1-O ) :   2.1114

Dispersion correction           -0.000111975
FINAL SINGLE POINT ENERGY     -1119.818211634568

DIPOLE MOMENT
-------------
                                X             Y             Z
Electronic contribution:     -0.00000       0.00000      -2.91127
Nuclear contribution   :      0.00000       0.00000       1.43702
                        -----------------------------------------
Total Dipole Moment    :     -0.00000       0.00000      -1.47425
                        -----------------------------------------
Magnitude (a.u.)       :      1.47425
Magnitude (Debye)      :      3.74724

Rotational constants in cm-1:     0.000000     0.528468     0.528468
Rotational constants in MHz :     0.000000 15843.074100 15843.074100

                             ****ORCA TERMINATED NORMALLY****
TOTAL RUN TIME: 0 days 0 hours 0 minutes 7 seconds 556 msec
