                         Program Version 4.2.0 -  RELEASE  -
|  1> #
|  2> # 24_CrS scanfunc/aug-cc-pvtz
|  3> #
|  4> ! scanfunc d3bj aug-cc-pvtz def2/j grid4 nofinalgrid
|  5>
|  6> *xyz 0 5
|  7>   Cr  0.00000000000000      0.00000000000000     -0.04064132858643
|  8>   S   0.00000000000000      0.00000000000000      2.04064132858643
|  9> *
| 10>
| 11> %pal
| 12> nprocs 24
| 13> end
| 14>
| 15>
| 16>                          ****END OF INPUT****

CARTESIAN COORDINATES (ANGSTROEM)
---------------------------------
  Cr     0.000000    0.000000   -0.040641
  S      0.000000    0.000000    2.040641

 Total Charge           Charge          ....    0
 Multiplicity           Mult            ....    5
 Number of Electrons    NEL             ....   40
 Basis Dimension        Dim             ....  143

ORBITAL ENERGIES
----------------
                 SPIN UP ORBITALS
  NO   OCC          E(Eh)            E(eV)
   0   1.0000    -215.100088     -5853.1710
   1   1.0000     -88.618955     -2411.4444
   2   1.0000     -24.642600      -670.5592
   3   1.0000     -20.857521      -567.5620
   4   1.0000     -20.857466      -567.5605
   5   1.0000     -20.853621      -567.4559
   6   1.0000      -7.822425      -212.8590
   7   1.0000      -5.760978      -156.7642
   8   1.0000      -5.760149      -156.7416
   9   1.0000      -5.757952      -156.6818
  10   1.0000      -2.906586       -79.0922
  11   1.0000      -1.846172       -50.2369
  12   1.0000      -1.845364       -50.2149
  13   1.0000      -1.844716       -50.1973
  14   1.0000      -0.588679       -16.0188
  15   1.0000      -0.282340        -7.6829
  16   1.0000      -0.259773        -7.0688
  17   1.0000      -0.240623        -6.5477
  18   1.0000      -0.227651        -6.1947
  19   1.0000      -0.227276        -6.1845
  20   1.0000      -0.206083        -5.6078
  21   1.0000      -0.175744        -4.7822
  22   0.0000      -0.153404        -4.1743
  23   0.0000      -0.124692        -3.3930
  24   0.0000      -0.035027        -0.9531
  25   0.0000      -0.031540        -0.8583
  26   0.0000       0.010893         0.2964

                 SPIN DOWN ORBITALS
  NO   OCC          E(Eh)            E(eV)
   0   1.0000    -215.102085     -5853.2253
   1   1.0000     -88.623598     -2411.5707
   2   1.0000     -24.510133      -666.9546
   3   1.0000     -20.777335      -565.3800
   4   1.0000     -20.774211      -565.2950
   5   1.0000     -20.762884      -564.9868
   6   1.0000      -7.831784      -213.1137
   7   1.0000      -5.773082      -157.0935
   8   1.0000      -5.767614      -156.9447
   9   1.0000      -5.763089      -156.8216
  10   1.0000      -2.746709       -74.7418
  11   1.0000      -1.699787       -46.2535
  12   1.0000      -1.684820       -45.8463
  13   1.0000      -1.659930       -45.1690
  14   1.0000      -0.608063       -16.5462
  15   1.0000      -0.254814        -6.9339
  16   1.0000      -0.242899        -6.6096
  17   1.0000      -0.221521        -6.0279
  18   0.0000      -0.075984        -2.0676
  19   0.0000      -0.067706        -1.8424
  20   0.0000      -0.049373        -1.3435
  21   0.0000      -0.040857        -1.1118
  22   0.0000      -0.040013        -1.0888

MULLIKEN ATOMIC CHARGES AND SPIN POPULATIONS
--------------------------------------------
   0 Cr:    0.254403    4.667716
   1 S :   -0.254403   -0.667716
Sum of atomic charges         :   -0.0000000

LOEWDIN ATOMIC CHARGES AND SPIN POPULATIONS
-------------------------------------------
   0 Cr:    0.031193    4.351746
   1 S :   -0.031193   -0.351746

  Mayer bond orders larger than 0.100000
B(  0-Cr,  1-S ) :   2.1479

Dispersion correction           -0.000226810
FINAL SINGLE POINT ENERGY     -1442.885527220648

DIPOLE MOMENT
-------------
                                X             Y             Z
Electronic contribution:      0.00000      -0.00000      -4.92290
Nuclear contribution   :      0.00000       0.00000       2.92710
                        -----------------------------------------
Total Dipole Moment    :      0.00000      -0.00000      -1.99580
                        -----------------------------------------
Magnitude (a.u.)       :      1.99580
Magnitude (Debye)      :      5.07292

Rotational constants in cm-1:     0.000000     0.196226     0.196226
Rotational constants in MHz :     0.000000  5882.717555  5882.717555

                             ****ORCA TERMINATED NORMALLY****
TOTAL RUN TIME: 0 days 0 hours 0 minutes 12 seconds 335 msec
