                         Program Version 4.2.0 -  RELEASE  -
|  1> #
|  2> # 25_MnH scanfunc/aug-cc-pvtz
|  3> #
|  4> ! scanfunc d3bj aug-cc-pvtz def2/j grid4 nofinalgrid
|  5>
|  6> *xyz 0 7
|  7>   Mn  0.00000000000000      0.00000000000000      0.13923463274405
|  8>   H   0.00000000000000      0.00000000000000      1.86076536725595
|  9> *
| 10>
| 11> %pal
| 12> nprocs 24
| 13> end
| 14>
| 15>
| 16>                          ****END OF INPUT****

CARTESIAN COORDINATES (ANGSTROEM)
---------------------------------
  Mn     0.000000    0.000000    0.139235
  H      0.000000    0.000000    1.860765

 Total Charge           Charge          ....    0
 Multiplicity           Mult            ....    7
 Number of Electrons    NEL             ....   26
 Basis Dimension        Dim             ....  116

ORBITAL ENERGIES
----------------
                 SPIN UP ORBITALS
  NO   OCC          E(Eh)            E(eV)
   0   1.0000    -234.933795     -6392.8736
   1   1.0000     -27.332411      -743.7527
   2   1.0000     -23.317554      -634.5029
   3   1.0000     -23.317554      -634.5029
   4   1.0000     -23.314295      -634.4142
   5   1.0000      -3.272552       -89.0507
   6   1.0000      -2.126713       -57.8708
   7   1.0000      -2.126713       -57.8708
   8   1.0000      -2.111966       -57.4695
   9   1.0000      -0.337426        -9.1818
  10   1.0000      -0.330472        -8.9926
  11   1.0000      -0.330459        -8.9922
  12   1.0000      -0.321472        -8.7477
  13   1.0000      -0.321472        -8.7477
  14   1.0000      -0.265223        -7.2171
  15   1.0000      -0.153975        -4.1899
  16   0.0000      -0.066514        -1.8099
  17   0.0000      -0.066514        -1.8099
  18   0.0000       0.015445         0.4203
  19   0.0000       0.029351         0.7987
  20   0.0000       0.036945         1.0053

                 SPIN DOWN ORBITALS
  NO   OCC          E(Eh)            E(eV)
   0   1.0000    -234.932617     -6392.8415
   1   1.0000     -27.211175      -740.4537
   2   1.0000     -23.228753      -632.0865
   3   1.0000     -23.228753      -632.0865
   4   1.0000     -23.227198      -632.0442
   5   1.0000      -3.056176       -83.1628
   6   1.0000      -1.904940       -51.8361
   7   1.0000      -1.904940       -51.8361
   8   1.0000      -1.894294       -51.5464
   9   1.0000      -0.255114        -6.9420
  10   0.0000      -0.103028        -2.8035
  11   0.0000      -0.102989        -2.8025
  12   0.0000      -0.099295        -2.7020
  13   0.0000      -0.099295        -2.7020
  14   0.0000      -0.099141        -2.6978

MULLIKEN ATOMIC CHARGES AND SPIN POPULATIONS
--------------------------------------------
   0 Mn:    0.239663    5.930610
   1 H :   -0.239663    0.069390
Sum of atomic charges         :    0.0000000

LOEWDIN ATOMIC CHARGES AND SPIN POPULATIONS
-------------------------------------------
   0 Mn:    0.564727    5.791957
   1 H :   -0.564727    0.208043

  Mayer bond orders larger than 0.100000
B(  0-Mn,  1-H ) :   0.9369

Dispersion correction           -0.000096940
FINAL SINGLE POINT ENERGY     -1151.701774642127

DIPOLE MOMENT
-------------
                                X             Y             Z
Electronic contribution:      0.00000       0.00000      -2.18738
Nuclear contribution   :      0.00000       0.00000       1.72930
                        -----------------------------------------
Total Dipole Moment    :      0.00000       0.00000      -0.45808
                        -----------------------------------------
Magnitude (a.u.)       :      0.45808
Magnitude (Debye)      :      1.16436

Rotational constants in cm-1:     0.000000     5.746491     5.746491
Rotational constants in MHz :     0.000000 172275.461427 172275.461427

                             ****ORCA TERMINATED NORMALLY****
TOTAL RUN TIME: 0 days 0 hours 0 minutes 6 seconds 86 msec
