                         Program Version 4.2.0 -  RELEASE  -
|  1> #
|  2> # 26_MnF scanfunc/aug-cc-pvtz
|  3> #
|  4> ! scanfunc d3bj aug-cc-pvtz def2/j grid4 nofinalgrid
|  5>
|  6> *xyz 0 7
|  7>   Mn  0.00000000000000      0.00000000000000      0.08590077209256
|  8>   F   0.00000000000000      0.00000000000000      1.91409922790744
|  9> *
| 10>
| 11> %pal
| 12> nprocs 24
| 13> end
| 14>
| 15>
| 16>                          ****END OF INPUT****

CARTESIAN COORDINATES (ANGSTROEM)
---------------------------------
  Mn     0.000000    0.000000    0.085901
  F      0.000000    0.000000    1.914099

 Total Charge           Charge          ....    0
 Multiplicity           Mult            ....    7
 Number of Electrons    NEL             ....   34
 Basis Dimension        Dim             ....  139

ORBITAL ENERGIES
----------------
                 SPIN UP ORBITALS
  NO   OCC          E(Eh)            E(eV)
   0   1.0000    -234.932117     -6392.8279
   1   1.0000     -27.329281      -743.6676
   2   1.0000     -24.442270      -665.1080
   3   1.0000     -23.314678      -634.4246
   4   1.0000     -23.314678      -634.4246
   5   1.0000     -23.310613      -634.3140
   6   1.0000      -3.272201       -89.0411
   7   1.0000      -2.126203       -57.8569
   8   1.0000      -2.126203       -57.8569
   9   1.0000      -2.113359       -57.5074
  10   1.0000      -1.057203       -28.7680
  11   1.0000      -0.391428       -10.6513
  12   1.0000      -0.359754        -9.7894
  13   1.0000      -0.359754        -9.7894
  14   1.0000      -0.331071        -9.0089
  15   1.0000      -0.331067        -9.0088
  16   1.0000      -0.283325        -7.7097
  17   1.0000      -0.283325        -7.7097
  18   1.0000      -0.279835        -7.6147
  19   1.0000      -0.188026        -5.1164
  20   0.0000      -0.054664        -1.4875
  21   0.0000      -0.054664        -1.4875
  22   0.0000       0.007071         0.1924
  23   0.0000       0.026647         0.7251
  24   0.0000       0.038096         1.0366

                 SPIN DOWN ORBITALS
  NO   OCC          E(Eh)            E(eV)
   0   1.0000    -234.930791     -6392.7918
   1   1.0000     -27.207453      -740.3524
   2   1.0000     -24.435543      -664.9249
   3   1.0000     -23.225501      -631.9980
   4   1.0000     -23.225501      -631.9980
   5   1.0000     -23.222788      -631.9242
   6   1.0000      -3.055944       -83.1565
   7   1.0000      -1.904307       -51.8188
   8   1.0000      -1.904307       -51.8188
   9   1.0000      -1.896924       -51.6179
  10   1.0000      -1.041422       -28.3385
  11   1.0000      -0.350118        -9.5272
  12   1.0000      -0.319911        -8.7052
  13   1.0000      -0.319911        -8.7052
  14   0.0000      -0.104172        -2.8347
  15   0.0000      -0.104163        -2.8344
  16   0.0000      -0.096481        -2.6254
  17   0.0000      -0.085587        -2.3289
  18   0.0000      -0.085587        -2.3289

MULLIKEN ATOMIC CHARGES AND SPIN POPULATIONS
--------------------------------------------
   0 Mn:    0.617380    5.868671
   1 F :   -0.617380    0.131329
Sum of atomic charges         :   -0.0000000

LOEWDIN ATOMIC CHARGES AND SPIN POPULATIONS
-------------------------------------------
   0 Mn:    0.435176    5.742275
   1 F :   -0.435176    0.257725

  Mayer bond orders larger than 0.100000
B(  0-Mn,  1-F ) :   0.7101

Dispersion correction           -0.000073950
FINAL SINGLE POINT ENERGY     -1251.055140138723

DIPOLE MOMENT
-------------
                                X             Y             Z
Electronic contribution:     -0.00000       0.00000      -1.81580
Nuclear contribution   :      0.00000       0.00000       0.91162
                        -----------------------------------------
Total Dipole Moment    :     -0.00000       0.00000      -0.90418
                        -----------------------------------------
Magnitude (a.u.)       :      0.90418
Magnitude (Debye)      :      2.29824

Rotational constants in cm-1:     0.000000     0.357290     0.357290
Rotational constants in MHz :     0.000000 10711.297675 10711.297675

                             ****ORCA TERMINATED NORMALLY****
TOTAL RUN TIME: 0 days 0 hours 0 minutes 6 seconds 538 msec
