                         Program Version 4.2.0 -  RELEASE  -
|  1> #
|  2> # 27_MnCl scanfunc/aug-cc-pvtz
|  3> #
|  4> ! scanfunc d3bj aug-cc-pvtz def2/j grid4 nofinalgrid
|  5>
|  6> *xyz 0 7
|  7>   Mn  0.00000000000000      0.00000000000000     -0.11585879372688
|  8>   Cl  0.00000000000000      0.00000000000000      2.11585879372688
|  9> *
| 10>
| 11> %pal
| 12> nprocs 24
| 13> end
| 14>
| 15>
| 16>                          ****END OF INPUT****

CARTESIAN COORDINATES (ANGSTROEM)
---------------------------------
  Mn     0.000000    0.000000   -0.115859
  Cl     0.000000    0.000000    2.115859

 Total Charge           Charge          ....    0
 Multiplicity           Mult            ....    7
 Number of Electrons    NEL             ....   42
 Basis Dimension        Dim             ....  143

ORBITAL ENERGIES
----------------
                 SPIN UP ORBITALS
  NO   OCC          E(Eh)            E(eV)
   0   1.0000    -234.948952     -6393.2860
   1   1.0000    -101.247157     -2755.0752
   2   1.0000     -27.346242      -744.1291
   3   1.0000     -23.331213      -634.8746
   4   1.0000     -23.331213      -634.8746
   5   1.0000     -23.328288      -634.7950
   6   1.0000      -9.298912      -253.0363
   7   1.0000      -7.056812      -192.0256
   8   1.0000      -7.055001      -191.9763
   9   1.0000      -7.055001      -191.9763
  10   1.0000      -3.287788       -89.4653
  11   1.0000      -2.140754       -58.2529
  12   1.0000      -2.140754       -58.2529
  13   1.0000      -2.130429       -57.9719
  14   1.0000      -0.747244       -20.3335
  15   1.0000      -0.369442       -10.0530
  16   1.0000      -0.347573        -9.4579
  17   1.0000      -0.347573        -9.4579
  18   1.0000      -0.344321        -9.3694
  19   1.0000      -0.344319        -9.3694
  20   1.0000      -0.295902        -8.0519
  21   1.0000      -0.271918        -7.3993
  22   1.0000      -0.271918        -7.3993
  23   1.0000      -0.191282        -5.2051
  24   0.0000      -0.062384        -1.6975
  25   0.0000      -0.062384        -1.6975
  26   0.0000       0.005035         0.1370
  27   0.0000       0.022279         0.6063
  28   0.0000       0.033458         0.9104

                 SPIN DOWN ORBITALS
  NO   OCC          E(Eh)            E(eV)
   0   1.0000    -234.947752     -6393.2534
   1   1.0000    -101.245622     -2755.0334
   2   1.0000     -27.224367      -740.8127
   3   1.0000     -23.242097      -632.4496
   4   1.0000     -23.242097      -632.4496
   5   1.0000     -23.240448      -632.4047
   6   1.0000      -9.303237      -253.1539
   7   1.0000      -7.056228      -192.0097
   8   1.0000      -7.055135      -191.9800
   9   1.0000      -7.055135      -191.9800
  10   1.0000      -3.071116       -83.5693
  11   1.0000      -1.918834       -52.2141
  12   1.0000      -1.918834       -52.2141
  13   1.0000      -1.912128       -52.0317
  14   1.0000      -0.735089       -20.0028
  15   1.0000      -0.321561        -8.7501
  16   1.0000      -0.281680        -7.6649
  17   1.0000      -0.281680        -7.6649
  18   0.0000      -0.118020        -3.2115
  19   0.0000      -0.118010        -3.2112
  20   0.0000      -0.112958        -3.0737
  21   0.0000      -0.109282        -2.9737
  22   0.0000      -0.109282        -2.9737

MULLIKEN ATOMIC CHARGES AND SPIN POPULATIONS
--------------------------------------------
   0 Mn:    0.428686    5.870527
   1 Cl:   -0.428686    0.129473
Sum of atomic charges         :   -0.0000000

LOEWDIN ATOMIC CHARGES AND SPIN POPULATIONS
-------------------------------------------
   0 Mn:    0.101696    5.724422
   1 Cl:   -0.101696    0.275578

  Mayer bond orders larger than 0.100000
B(  0-Mn,  1-Cl) :   0.9924

Dispersion correction           -0.000175872
FINAL SINGLE POINT ENERGY     -1611.426809018646

DIPOLE MOMENT
-------------
                                X             Y             Z
Electronic contribution:      0.00000      -0.00000      -3.26889
Nuclear contribution   :      0.00000       0.00000       2.22337
                        -----------------------------------------
Total Dipole Moment    :      0.00000      -0.00000      -1.04552
                        -----------------------------------------
Magnitude (a.u.)       :      1.04552
Magnitude (Debye)      :      2.65750

Rotational constants in cm-1:     0.000000     0.157077     0.157077
Rotational constants in MHz :     0.000000  4709.038991  4709.038991

                             ****ORCA TERMINATED NORMALLY****
TOTAL RUN TIME: 0 days 0 hours 0 minutes 6 seconds 688 msec
