                         Program Version 4.2.0 -  RELEASE  -
|  1> #
|  2> # 30_MnS scanfunc/aug-cc-pvtz
|  3> #
|  4> ! scanfunc d3bj aug-cc-pvtz def2/j grid4 nofinalgrid
|  5>
|  6> *xyz 0 6
|  7>   Mn  0.00000000000000      0.00000000000000     -0.02260858554296
|  8>   S   0.00000000000000      0.00000000000000      2.02260858554296
|  9> *
| 10>
| 11> %pal
| 12> nprocs 24
| 13> end
| 14>
| 15>
| 16>                          ****END OF INPUT****

CARTESIAN COORDINATES (ANGSTROEM)
---------------------------------
  Mn     0.000000    0.000000   -0.022609
  S      0.000000    0.000000    2.022609

 Total Charge           Charge          ....    0
 Multiplicity           Mult            ....    6
 Number of Electrons    NEL             ....   41
 Basis Dimension        Dim             ....  143

ORBITAL ENERGIES
----------------
                 SPIN UP ORBITALS
  NO   OCC          E(Eh)            E(eV)
   0   1.0000    -234.918603     -6392.4602
   1   1.0000     -88.610885     -2411.2248
   2   1.0000     -27.307810      -743.0833
   3   1.0000     -23.295120      -633.8924
   4   1.0000     -23.295120      -633.8924
   5   1.0000     -23.288351      -633.7082
   6   1.0000      -7.817830      -212.7340
   7   1.0000      -5.754764      -156.5951
   8   1.0000      -5.754764      -156.5951
   9   1.0000      -5.752934      -156.5453
  10   1.0000      -3.246780       -88.3494
  11   1.0000      -2.100456       -57.1563
  12   1.0000      -2.100456       -57.1563
  13   1.0000      -2.089468       -56.8573
  14   1.0000      -0.594070       -16.1655
  15   1.0000      -0.320714        -8.7271
  16   1.0000      -0.315034        -8.5725
  17   1.0000      -0.315034        -8.5725
  18   1.0000      -0.308622        -8.3980
  19   1.0000      -0.308600        -8.3974
  20   1.0000      -0.247084        -6.7235
  21   1.0000      -0.196164        -5.3379
  22   1.0000      -0.196164        -5.3379
  23   0.0000      -0.144275        -3.9259
  24   0.0000      -0.042995        -1.1700
  25   0.0000      -0.042995        -1.1700
  26   0.0000       0.008725         0.2374
  27   0.0000       0.015537         0.4228

                 SPIN DOWN ORBITALS
  NO   OCC          E(Eh)            E(eV)
   0   1.0000    -234.917981     -6392.4432
   1   1.0000     -88.611706     -2411.2471
   2   1.0000     -27.198376      -740.1054
   3   1.0000     -23.214511      -631.6990
   4   1.0000     -23.213041      -631.6590
   5   1.0000     -23.213041      -631.6590
   6   1.0000      -7.818863      -212.7621
   7   1.0000      -5.759833      -156.7330
   8   1.0000      -5.752475      -156.5328
   9   1.0000      -5.752475      -156.5328
  10   1.0000      -3.055814       -83.1529
  11   1.0000      -1.908101       -51.9221
  12   1.0000      -1.898523       -51.6614
  13   1.0000      -1.898523       -51.6614
  14   1.0000      -0.601057       -16.3556
  15   1.0000      -0.266875        -7.2620
  16   1.0000      -0.223066        -6.0699
  17   1.0000      -0.223066        -6.0699
  18   0.0000      -0.109351        -2.9756
  19   0.0000      -0.100457        -2.7336
  20   0.0000      -0.100435        -2.7330
  21   0.0000      -0.092424        -2.5150
  22   0.0000      -0.092424        -2.5150

MULLIKEN ATOMIC CHARGES AND SPIN POPULATIONS
--------------------------------------------
   0 Mn:    0.282431    4.998200
   1 S :   -0.282431    0.001800
Sum of atomic charges         :   -0.0000000

LOEWDIN ATOMIC CHARGES AND SPIN POPULATIONS
-------------------------------------------
   0 Mn:    0.138190    4.836807
   1 S :   -0.138190    0.163193

  Mayer bond orders larger than 0.100000
B(  0-Mn,  1-S ) :   2.2205

Dispersion correction           -0.000191994
FINAL SINGLE POINT ENERGY     -1549.446737953082

DIPOLE MOMENT
-------------
                                X             Y             Z
Electronic contribution:      0.00000       0.00000      -5.57396
Nuclear contribution   :      0.00000       0.00000       3.44465
                        -----------------------------------------
Total Dipole Moment    :      0.00000       0.00000      -2.12932
                        -----------------------------------------
Magnitude (a.u.)       :      2.12932
Magnitude (Debye)      :      5.41229

Rotational constants in cm-1:     0.000000     0.199061     0.199061
Rotational constants in MHz :     0.000000  5967.684062  5967.684062

                             ****ORCA TERMINATED NORMALLY****
TOTAL RUN TIME: 0 days 0 hours 0 minutes 8 seconds 80 msec
