                         Program Version 4.2.0 -  RELEASE  -
|  1> #
|  2> # 31_FeH scanfunc/aug-cc-pvtz
|  3> #
|  4> ! scanfunc d3bj aug-cc-pvtz def2/j grid4 nofinalgrid
|  5>
|  6> *xyz 0 4
|  7>   Fe  0.00000000000000      0.00000000000000      0.22838748047068
|  8>   H   0.00000000000000      0.00000000000000      1.77161251952932
|  9> *
| 10>
| 11> %pal
| 12> nprocs 24
| 13> end
| 14>
| 15>
| 16>                          ****END OF INPUT****

CARTESIAN COORDINATES (ANGSTROEM)
---------------------------------
  Fe     0.000000    0.000000    0.228387
  H      0.000000    0.000000    1.771613

 Total Charge           Charge          ....    0
 Multiplicity           Mult            ....    4
 Number of Electrons    NEL             ....   27
 Basis Dimension        Dim             ....  116

ORBITAL ENERGIES
----------------
                 SPIN UP ORBITALS
  NO   OCC          E(Eh)            E(eV)
   0   1.0000    -255.508346     -6952.7356
   1   1.0000     -29.807632      -811.1069
   2   1.0000     -25.637136      -697.6219
   3   1.0000     -25.637136      -697.6219
   4   1.0000     -25.603934      -696.7185
   5   1.0000      -3.381256       -92.0087
   6   1.0000      -2.169416       -59.0328
   7   1.0000      -2.169416       -59.0328
   8   1.0000      -2.109409       -57.3999
   9   1.0000      -0.268673        -7.3110
  10   1.0000      -0.230322        -6.2674
  11   1.0000      -0.230307        -6.2670
  12   1.0000      -0.196710        -5.3528
  13   1.0000      -0.172584        -4.6963
  14   1.0000      -0.172584        -4.6962
  15   0.0000      -0.088800        -2.4164
  16   0.0000      -0.034566        -0.9406
  17   0.0000      -0.034566        -0.9406
  18   0.0000       0.017781         0.4838
  19   0.0000       0.026405         0.7185

                 SPIN DOWN ORBITALS
  NO   OCC          E(Eh)            E(eV)
   0   1.0000    -255.503084     -6952.5924
   1   1.0000     -29.788741      -810.5929
   2   1.0000     -25.601853      -696.6618
   3   1.0000     -25.601853      -696.6618
   4   1.0000     -25.592494      -696.4072
   5   1.0000      -3.232387       -87.9577
   6   1.0000      -2.011554       -54.7372
   7   1.0000      -2.003203       -54.5099
   8   1.0000      -2.003203       -54.5099
   9   1.0000      -0.256167        -6.9707
  10   1.0000      -0.132589        -3.6079
  11   1.0000      -0.132588        -3.6079
  12   0.0000      -0.076460        -2.0806
  13   0.0000      -0.056029        -1.5246
  14   0.0000      -0.055516        -1.5107
  15   0.0000      -0.012822        -0.3489
  16   0.0000       0.004081         0.1111

MULLIKEN ATOMIC CHARGES AND SPIN POPULATIONS
--------------------------------------------
   0 Fe:    0.060226    3.194420
   1 H :   -0.060226   -0.194420
Sum of atomic charges         :   -0.0000000

LOEWDIN ATOMIC CHARGES AND SPIN POPULATIONS
-------------------------------------------
   0 Fe:    0.682706    3.025091
   1 H :   -0.682706   -0.025091

  Mayer bond orders larger than 0.100000
B(  0-Fe,  1-H ) :   1.0215

Dispersion correction           -0.000068100
FINAL SINGLE POINT ENERGY     -1264.350558735912

DIPOLE MOMENT
-------------
                                X             Y             Z
Electronic contribution:     -0.00000      -0.00000      -2.52433
Nuclear contribution   :      0.00000       0.00000       1.52035
                        -----------------------------------------
Total Dipole Moment    :     -0.00000      -0.00000      -1.00398
                        -----------------------------------------
Magnitude (a.u.)       :      1.00398
Magnitude (Debye)      :      2.55192

Rotational constants in cm-1:     0.000000     7.149016     7.149016
Rotational constants in MHz :     0.000000 214322.097628 214322.097628

                             ****ORCA TERMINATED NORMALLY****
TOTAL RUN TIME: 0 days 0 hours 0 minutes 6 seconds 873 msec
