                         Program Version 4.2.0 -  RELEASE  -
|  1> #
|  2> # 33_FeCl scanfunc/aug-cc-pvtz
|  3> #
|  4> ! scanfunc d3bj aug-cc-pvtz def2/j grid4 nofinalgrid
|  5>
|  6> *xyz 0 6
|  7>   Fe  0.00000000000000      0.00000000000000     -0.08894892709089
|  8>   Cl  0.00000000000000      0.00000000000000      2.08894892709089
|  9> *
| 10>
| 11> %pal
| 12> nprocs 24
| 13> end
| 14>
| 15>
| 16>                          ****END OF INPUT****

CARTESIAN COORDINATES (ANGSTROEM)
---------------------------------
  Fe     0.000000    0.000000   -0.088949
  Cl     0.000000    0.000000    2.088949

 Total Charge           Charge          ....    0
 Multiplicity           Mult            ....    6
 Number of Electrons    NEL             ....   43
 Basis Dimension        Dim             ....  143

ORBITAL ENERGIES
----------------
                 SPIN UP ORBITALS
  NO   OCC          E(Eh)            E(eV)
   0   1.0000    -255.641417     -6956.3566
   1   1.0000    -101.262998     -2755.5063
   2   1.0000     -29.949280      -814.9614
   3   1.0000     -25.790885      -701.8057
   4   1.0000     -25.765460      -701.1138
   5   1.0000     -25.765460      -701.1138
   6   1.0000      -9.313398      -253.4304
   7   1.0000      -7.072456      -192.4513
   8   1.0000      -7.070424      -192.3960
   9   1.0000      -7.070424      -192.3960
  10   1.0000      -3.554680       -96.7278
  11   1.0000      -2.357216       -64.1431
  12   1.0000      -2.302137       -62.6443
  13   1.0000      -2.302137       -62.6443
  14   1.0000      -0.764855       -20.8128
  15   1.0000      -0.397018       -10.8034
  16   1.0000      -0.374925       -10.2022
  17   1.0000      -0.374925       -10.2022
  18   1.0000      -0.352664        -9.5965
  19   1.0000      -0.316040        -8.5999
  20   1.0000      -0.306954        -8.3526
  21   1.0000      -0.288026        -7.8376
  22   1.0000      -0.288026        -7.8376
  23   1.0000      -0.192846        -5.2476
  24   0.0000      -0.053568        -1.4576
  25   0.0000      -0.053567        -1.4576
  26   0.0000       0.006813         0.1854
  27   0.0000       0.029453         0.8014
  28   0.0000       0.037211         1.0126

                 SPIN DOWN ORBITALS
  NO   OCC          E(Eh)            E(eV)
   0   1.0000    -255.632173     -6956.1051
   1   1.0000    -101.260738     -2755.4448
   2   1.0000     -29.923789      -814.2677
   3   1.0000     -25.743313      -700.5112
   4   1.0000     -25.731413      -700.1873
   5   1.0000     -25.731413      -700.1873
   6   1.0000      -9.319546      -253.5977
   7   1.0000      -7.071670      -192.4299
   8   1.0000      -7.070456      -192.3969
   9   1.0000      -7.070456      -192.3969
  10   1.0000      -3.352539       -91.2272
  11   1.0000      -2.131765       -58.0083
  12   1.0000      -2.113489       -57.5110
  13   1.0000      -2.113489       -57.5110
  14   1.0000      -0.747932       -20.3523
  15   1.0000      -0.338716        -9.2169
  16   1.0000      -0.294133        -8.0038
  17   1.0000      -0.294133        -8.0038
  18   1.0000      -0.230154        -6.2628
  19   0.0000      -0.166937        -4.5426
  20   0.0000      -0.153350        -4.1729
  21   0.0000      -0.153350        -4.1729
  22   0.0000      -0.104315        -2.8386
  23   0.0000      -0.075997        -2.0680

MULLIKEN ATOMIC CHARGES AND SPIN POPULATIONS
--------------------------------------------
   0 Fe:    0.395069    4.806090
   1 Cl:   -0.395069    0.193910
Sum of atomic charges         :   -0.0000000

LOEWDIN ATOMIC CHARGES AND SPIN POPULATIONS
-------------------------------------------
   0 Fe:    0.060462    4.662224
   1 Cl:   -0.060462    0.337776

  Mayer bond orders larger than 0.100000
B(  0-Fe,  1-Cl) :   1.0416

Dispersion correction           -0.000167751
FINAL SINGLE POINT ENERGY     -1724.072555514526

DIPOLE MOMENT
-------------
                                X             Y             Z
Electronic contribution:     -0.00000       0.00000      -2.02514
Nuclear contribution   :      0.00000       0.00000       1.24736
                        -----------------------------------------
Total Dipole Moment    :     -0.00000       0.00000      -0.77778
                        -----------------------------------------
Magnitude (a.u.)       :      0.77778
Magnitude (Debye)      :      1.97697

Rotational constants in cm-1:     0.000000     0.163882     0.163882
Rotational constants in MHz :     0.000000  4913.053230  4913.053230

                             ****ORCA TERMINATED NORMALLY****
TOTAL RUN TIME: 0 days 0 hours 0 minutes 7 seconds 425 msec
