                         Program Version 4.2.0 -  RELEASE  -
|  1> #
|  2> # 35_FeO scanfunc/aug-cc-pvtz
|  3> #
|  4> ! scanfunc d3bj aug-cc-pvtz def2/j grid4 nofinalgrid
|  5>
|  6> *xyz 0 5
|  7>   Fe  0.00000000000000      0.00000000000000      0.19611340956582
|  8>   O   0.00000000000000      0.00000000000000      1.80388659043418
|  9> *
| 10>
| 11> %pal
| 12> nprocs 24
| 13> end
| 14>
| 15>
| 16>                          ****END OF INPUT****

CARTESIAN COORDINATES (ANGSTROEM)
---------------------------------
  Fe     0.000000    0.000000    0.196113
  O      0.000000    0.000000    1.803887

 Total Charge           Charge          ....    0
 Multiplicity           Mult            ....    5
 Number of Electrons    NEL             ....   34
 Basis Dimension        Dim             ....  139

ORBITAL ENERGIES
----------------
                 SPIN UP ORBITALS
  NO   OCC          E(Eh)            E(eV)
   0   1.0000    -255.583533     -6954.7815
   1   1.0000     -29.891284      -813.3832
   2   1.0000     -25.722349      -699.9407
   3   1.0000     -25.708296      -699.5583
   4   1.0000     -25.708296      -699.5583
   5   1.0000     -18.935406      -515.2586
   6   1.0000      -3.476787       -94.6082
   7   1.0000      -2.276031       -61.9340
   8   1.0000      -2.227976       -60.6263
   9   1.0000      -2.227976       -60.6263
  10   1.0000      -0.850781       -23.1509
  11   1.0000      -0.347550        -9.4573
  12   1.0000      -0.341248        -9.2858
  13   1.0000      -0.341248        -9.2858
  14   1.0000      -0.286812        -7.8046
  15   1.0000      -0.241022        -6.5585
  16   1.0000      -0.225487        -6.1358
  17   1.0000      -0.215016        -5.8509
  18   1.0000      -0.215016        -5.8509
  19   0.0000      -0.133436        -3.6310
  20   0.0000      -0.025556        -0.6954
  21   0.0000      -0.025556        -0.6954
  22   0.0000       0.014141         0.3848
  23   0.0000       0.020758         0.5649

                 SPIN DOWN ORBITALS
  NO   OCC          E(Eh)            E(eV)
   0   1.0000    -255.576195     -6954.5818
   1   1.0000     -29.872057      -812.8600
   2   1.0000     -25.694537      -699.1839
   3   1.0000     -25.676533      -698.6940
   4   1.0000     -25.676533      -698.6940
   5   1.0000     -18.933407      -515.2042
   6   1.0000      -3.317344       -90.2695
   7   1.0000      -2.110661       -57.4340
   8   1.0000      -2.073803       -56.4310
   9   1.0000      -2.073803       -56.4310
  10   1.0000      -0.832787       -22.6613
  11   1.0000      -0.308875        -8.4049
  12   1.0000      -0.262156        -7.1336
  13   1.0000      -0.262156        -7.1336
  14   1.0000      -0.187181        -5.0935
  15   0.0000      -0.124500        -3.3878
  16   0.0000      -0.094710        -2.5772
  17   0.0000      -0.094710        -2.5772
  18   0.0000      -0.069225        -1.8837
  19   0.0000      -0.067617        -1.8399

MULLIKEN ATOMIC CHARGES AND SPIN POPULATIONS
--------------------------------------------
   0 Fe:    0.584209    3.629413
   1 O :   -0.584209    0.370587
Sum of atomic charges         :   -0.0000000

LOEWDIN ATOMIC CHARGES AND SPIN POPULATIONS
-------------------------------------------
   0 Fe:    0.591796    3.558742
   1 O :   -0.591796    0.441258

  Mayer bond orders larger than 0.100000
B(  0-Fe,  1-O ) :   2.0993

Dispersion correction           -0.000093475
FINAL SINGLE POINT ENERGY     -1339.022535927543

DIPOLE MOMENT
-------------
                                X             Y             Z
Electronic contribution:      0.00000      -0.00000      -3.10196
Nuclear contribution   :      0.00000       0.00000       1.30353
                        -----------------------------------------
Total Dipole Moment    :      0.00000      -0.00000      -1.79844
                        -----------------------------------------
Magnitude (a.u.)       :      1.79844
Magnitude (Debye)      :      4.57126

Rotational constants in cm-1:     0.000000     0.524387     0.524387
Rotational constants in MHz :     0.000000 15720.731712 15720.731712

                             ****ORCA TERMINATED NORMALLY****
TOTAL RUN TIME: 0 days 0 hours 0 minutes 7 seconds 218 msec
