                         Program Version 4.2.0 -  RELEASE  -
|  1> #
|  2> # 36_FeS scanfunc/aug-cc-pvtz
|  3> #
|  4> ! scanfunc d3bj aug-cc-pvtz def2/j grid4 nofinalgrid
|  5>
|  6> *xyz 0 5
|  7>   Fe  0.00000000000000      0.00000000000000     -0.00599090985654
|  8>   S   0.00000000000000      0.00000000000000      2.00599090985654
|  9> *
| 10>
| 11> %pal
| 12> nprocs 24
| 13> end
| 14>
| 15>
| 16>                          ****END OF INPUT****

CARTESIAN COORDINATES (ANGSTROEM)
---------------------------------
  Fe     0.000000    0.000000   -0.005991
  S      0.000000    0.000000    2.005991

 Total Charge           Charge          ....    0
 Multiplicity           Mult            ....    5
 Number of Electrons    NEL             ....   42
 Basis Dimension        Dim             ....  143

ORBITAL ENERGIES
----------------
                 SPIN UP ORBITALS
  NO   OCC          E(Eh)            E(eV)
   0   1.0000    -255.587747     -6954.8962
   1   1.0000     -88.618091     -2411.4209
   2   1.0000     -29.891991      -813.4024
   3   1.0000     -25.723931      -699.9838
   4   1.0000     -25.708153      -699.5544
   5   1.0000     -25.708153      -699.5544
   6   1.0000      -7.825993      -212.9561
   7   1.0000      -5.762699      -156.8110
   8   1.0000      -5.762699      -156.8110
   9   1.0000      -5.760925      -156.7627
  10   1.0000      -3.480709       -94.7149
  11   1.0000      -2.279541       -62.0295
  12   1.0000      -2.232417       -60.7471
  13   1.0000      -2.232417       -60.7471
  14   1.0000      -0.605607       -16.4794
  15   1.0000      -0.326723        -8.8906
  16   1.0000      -0.316271        -8.6062
  17   1.0000      -0.316271        -8.6062
  18   1.0000      -0.292703        -7.9648
  19   1.0000      -0.248525        -6.7627
  20   1.0000      -0.247142        -6.7251
  21   1.0000      -0.202608        -5.5132
  22   1.0000      -0.202608        -5.5132
  23   0.0000      -0.141630        -3.8540
  24   0.0000      -0.031277        -0.8511
  25   0.0000      -0.031277        -0.8511
  26   0.0000       0.010500         0.2857
  27   0.0000       0.017087         0.4650

                 SPIN DOWN ORBITALS
  NO   OCC          E(Eh)            E(eV)
   0   1.0000    -255.581150     -6954.7167
   1   1.0000     -88.616941     -2411.3895
   2   1.0000     -29.870389      -812.8146
   3   1.0000     -25.690864      -699.0840
   4   1.0000     -25.676322      -698.6882
   5   1.0000     -25.676322      -698.6882
   6   1.0000      -7.823100      -212.8774
   7   1.0000      -5.763653      -156.8370
   8   1.0000      -5.757151      -156.6600
   9   1.0000      -5.757151      -156.6600
  10   1.0000      -3.314359       -90.1883
  11   1.0000      -2.102395       -57.2091
  12   1.0000      -2.072904       -56.4066
  13   1.0000      -2.072904       -56.4066
  14   1.0000      -0.603746       -16.4288
  15   1.0000      -0.272635        -7.4188
  16   1.0000      -0.227837        -6.1997
  17   1.0000      -0.227837        -6.1997
  18   1.0000      -0.191182        -5.2023
  19   0.0000      -0.139381        -3.7928
  20   0.0000      -0.118078        -3.2131
  21   0.0000      -0.118078        -3.2131
  22   0.0000      -0.085131        -2.3165
  23   0.0000      -0.071516        -1.9460

MULLIKEN ATOMIC CHARGES AND SPIN POPULATIONS
--------------------------------------------
   0 Fe:    0.265348    3.680315
   1 S :   -0.265348    0.319685
Sum of atomic charges         :   -0.0000000

LOEWDIN ATOMIC CHARGES AND SPIN POPULATIONS
-------------------------------------------
   0 Fe:    0.091155    3.619100
   1 S :   -0.091155    0.380900

  Mayer bond orders larger than 0.100000
B(  0-Fe,  1-S ) :   2.3179

Dispersion correction           -0.000184082
FINAL SINGLE POINT ENERGY     -1662.103824270232

DIPOLE MOMENT
-------------
                                X             Y             Z
Electronic contribution:     -0.00000       0.00000      -4.61150
Nuclear contribution   :      0.00000       0.00000       2.59672
                        -----------------------------------------
Total Dipole Moment    :     -0.00000       0.00000      -2.01478
                        -----------------------------------------
Magnitude (a.u.)       :      2.01478
Magnitude (Debye)      :      5.12117

Rotational constants in cm-1:     0.000000     0.204456     0.204456
Rotational constants in MHz :     0.000000  6129.444038  6129.444038

                             ****ORCA TERMINATED NORMALLY****
TOTAL RUN TIME: 0 days 0 hours 0 minutes 9 seconds 420 msec
