                         Program Version 4.2.0 -  RELEASE  -
|  1> #
|  2> # 39_CoCl scanfunc/aug-cc-pvtz
|  3> #
|  4> ! scanfunc d3bj aug-cc-pvtz def2/j grid4 nofinalgrid
|  5>
|  6> *xyz 0 3
|  7>   Co  0.00000000000000      0.00000000000000     -0.04491550120186
|  8>   Cl  0.00000000000000      0.00000000000000      2.04491550120186
|  9> *
| 10>
| 11> %pal
| 12> nprocs 24
| 13> end
| 14>
| 15>
| 16>                          ****END OF INPUT****

CARTESIAN COORDINATES (ANGSTROEM)
---------------------------------
  Co     0.000000    0.000000   -0.044916
  Cl     0.000000    0.000000    2.044916

 Total Charge           Charge          ....    0
 Multiplicity           Mult            ....    3
 Number of Electrons    NEL             ....   44
 Basis Dimension        Dim             ....  143

ORBITAL ENERGIES
----------------
                 SPIN UP ORBITALS
  NO   OCC          E(Eh)            E(eV)
   0   1.0000    -277.055885     -7539.0739
   1   1.0000    -101.251248     -2755.1865
   2   1.0000     -32.583234      -886.6349
   3   1.0000     -28.270780      -769.2870
   4   1.0000     -28.239449      -768.4345
   5   1.0000     -28.239449      -768.4345
   6   1.0000      -9.304647      -253.1923
   7   1.0000      -7.061220      -192.1456
   8   1.0000      -7.058422      -192.0694
   9   1.0000      -7.058422      -192.0694
  10   1.0000      -3.713051      -101.0373
  11   1.0000      -2.440474       -66.4087
  12   1.0000      -2.357443       -64.1493
  13   1.0000      -2.357443       -64.1493
  14   1.0000      -0.740632       -20.1536
  15   1.0000      -0.333355        -9.0711
  16   1.0000      -0.318131        -8.6568
  17   1.0000      -0.318131        -8.6568
  18   1.0000      -0.255171        -6.9435
  19   1.0000      -0.255171        -6.9435
  20   1.0000      -0.207816        -5.6550
  21   1.0000      -0.199447        -5.4272
  22   1.0000      -0.199443        -5.4271
  23   0.0000      -0.136265        -3.7079
  24   0.0000      -0.023033        -0.6268
  25   0.0000      -0.023033        -0.6268
  26   0.0000       0.013166         0.3583
  27   0.0000       0.019956         0.5430

                 SPIN DOWN ORBITALS
  NO   OCC          E(Eh)            E(eV)
   0   1.0000    -277.052403     -7538.9792
   1   1.0000    -101.251065     -2755.1816
   2   1.0000     -32.541217      -885.4915
   3   1.0000     -28.236812      -768.3627
   4   1.0000     -28.211854      -767.6836
   5   1.0000     -28.211854      -767.6836
   6   1.0000      -9.305115      -253.2050
   7   1.0000      -7.062153      -192.1709
   8   1.0000      -7.057808      -192.0527
   9   1.0000      -7.057808      -192.0527
  10   1.0000      -3.603512       -98.0566
  11   1.0000      -2.289411       -62.2980
  12   1.0000      -2.282542       -62.1111
  13   1.0000      -2.282542       -62.1111
  14   1.0000      -0.740896       -20.1608
  15   1.0000      -0.343243        -9.3401
  16   1.0000      -0.279265        -7.5992
  17   1.0000      -0.279265        -7.5992
  18   1.0000      -0.223930        -6.0935
  19   1.0000      -0.165377        -4.5001
  20   1.0000      -0.164982        -4.4894
  21   0.0000      -0.112639        -3.0651
  22   0.0000      -0.102316        -2.7842
  23   0.0000      -0.102316        -2.7842
  24   0.0000      -0.004487        -0.1221
  25   0.0000      -0.004487        -0.1221

MULLIKEN ATOMIC CHARGES AND SPIN POPULATIONS
--------------------------------------------
   0 Co:    0.418323    2.011093
   1 Cl:   -0.418323   -0.011093
Sum of atomic charges         :   -0.0000000

LOEWDIN ATOMIC CHARGES AND SPIN POPULATIONS
-------------------------------------------
   0 Co:    0.016572    1.900638
   1 Cl:   -0.016572    0.099362

  Mayer bond orders larger than 0.100000
B(  0-Co,  1-Cl) :   1.2030

Dispersion correction           -0.000172803
FINAL SINGLE POINT ENERGY     -1843.144142574259

DIPOLE MOMENT
-------------
                                X             Y             Z
Electronic contribution:     -0.00000      -0.00000      -3.61277
Nuclear contribution   :      0.00000       0.00000       1.86529
                        -----------------------------------------
Total Dipole Moment    :     -0.00000      -0.00000      -1.74748
                        -----------------------------------------
Magnitude (a.u.)       :      1.74748
Magnitude (Debye)      :      4.44174

Rotational constants in cm-1:     0.000000     0.174373     0.174373
Rotational constants in MHz :     0.000000  5227.567081  5227.567081

                             ****ORCA TERMINATED NORMALLY****
TOTAL RUN TIME: 0 days 0 hours 0 minutes 11 seconds 265 msec
