                         Program Version 4.2.0 -  RELEASE  -
|  1> #
|  2> # 40_CoBr scanfunc/aug-cc-pvtz
|  3> #
|  4> ! scanfunc d3bj aug-cc-pvtz def2/j grid4 nofinalgrid
|  5>
|  6> *xyz 0 3
|  7>   Co  0.00000000000000      0.00000000000000     -0.10327875603907
|  8>   Br  0.00000000000000      0.00000000000000      2.10327875603907
|  9> *
| 10>
| 11> %pal
| 12> nprocs 24
| 13> end
| 14>
| 15>
| 16>                          ****END OF INPUT****

CARTESIAN COORDINATES (ANGSTROEM)
---------------------------------
  Co     0.000000    0.000000   -0.103279
  Br     0.000000    0.000000    2.103279

 Total Charge           Charge          ....    0
 Multiplicity           Mult            ....    3
 Number of Electrons    NEL             ....   62
 Basis Dimension        Dim             ....  152

ORBITAL ENERGIES
----------------
                 SPIN UP ORBITALS
  NO   OCC          E(Eh)            E(eV)
   0   1.0000    -482.247488    -13122.6213
   1   1.0000    -277.050987     -7538.9406
   2   1.0000     -62.287650     -1694.9331
   3   1.0000     -56.088843     -1526.2550
   4   1.0000     -56.088843     -1526.2550
   5   1.0000     -56.088591     -1526.2482
   6   1.0000     -32.577979      -886.4919
   7   1.0000     -28.265041      -769.1309
   8   1.0000     -28.234121      -768.2895
   9   1.0000     -28.234121      -768.2895
  10   1.0000      -8.634893      -234.9674
  11   1.0000      -6.423496      -174.7922
  12   1.0000      -6.419296      -174.6779
  13   1.0000      -6.419296      -174.6779
  14   1.0000      -3.708802      -100.9216
  15   1.0000      -2.502941       -68.1085
  16   1.0000      -2.501447       -68.0678
  17   1.0000      -2.501446       -68.0678
  18   1.0000      -2.498099       -67.9767
  19   1.0000      -2.498053       -67.9755
  20   1.0000      -2.436258       -66.2940
  21   1.0000      -2.353308       -64.0368
  22   1.0000      -2.353302       -64.0366
  23   1.0000      -0.704400       -19.1677
  24   1.0000      -0.319185        -8.6855
  25   1.0000      -0.307404        -8.3649
  26   1.0000      -0.307401        -8.3648
  27   1.0000      -0.244897        -6.6640
  28   1.0000      -0.244896        -6.6639
  29   1.0000      -0.207345        -5.6421
  30   1.0000      -0.196324        -5.3423
  31   1.0000      -0.196308        -5.3418
  32   0.0000      -0.134097        -3.6490
  33   0.0000      -0.022908        -0.6233
  34   0.0000      -0.022904        -0.6232
  35   0.0000       0.012825         0.3490
  36   0.0000       0.018776         0.5109

                 SPIN DOWN ORBITALS
  NO   OCC          E(Eh)            E(eV)
   0   1.0000    -482.247338    -13122.6172
   1   1.0000    -277.047549     -7538.8471
   2   1.0000     -62.287289     -1694.9233
   3   1.0000     -56.089623     -1526.2762
   4   1.0000     -56.087834     -1526.2276
   5   1.0000     -56.087834     -1526.2276
   6   1.0000     -32.534922      -885.3202
   7   1.0000     -28.230048      -768.1786
   8   1.0000     -28.206020      -767.5248
   9   1.0000     -28.206018      -767.5248
  10   1.0000      -8.634735      -234.9631
  11   1.0000      -6.423945      -174.8044
  12   1.0000      -6.418924      -174.6678
  13   1.0000      -6.418923      -174.6678
  14   1.0000      -3.597357       -97.8891
  15   1.0000      -2.503194       -68.1154
  16   1.0000      -2.501764       -68.0765
  17   1.0000      -2.501764       -68.0765
  18   1.0000      -2.497682       -67.9654
  19   1.0000      -2.497635       -67.9641
  20   1.0000      -2.282078       -62.0985
  21   1.0000      -2.277080       -61.9625
  22   1.0000      -2.277074       -61.9623
  23   1.0000      -0.700928       -19.0732
  24   1.0000      -0.326593        -8.8871
  25   1.0000      -0.262011        -7.1297
  26   1.0000      -0.262010        -7.1297
  27   1.0000      -0.220616        -6.0033
  28   1.0000      -0.161234        -4.3874
  29   1.0000      -0.160799        -4.3756
  30   0.0000      -0.111196        -3.0258
  31   0.0000      -0.099642        -2.7114
  32   0.0000      -0.099640        -2.7113
  33   0.0000      -0.005991        -0.1630
  34   0.0000      -0.005987        -0.1629

MULLIKEN ATOMIC CHARGES AND SPIN POPULATIONS
--------------------------------------------
   0 Co:    0.376368    2.013465
   1 Br:   -0.376368   -0.013465
Sum of atomic charges         :   -0.0000000

LOEWDIN ATOMIC CHARGES AND SPIN POPULATIONS
-------------------------------------------
   0 Co:   -0.095735    1.899363
   1 Br:    0.095735    0.100637

  Mayer bond orders larger than 0.100000
B(  0-Co,  1-Br) :   1.3238

Dispersion correction           -0.000180206
FINAL SINGLE POINT ENERGY     -3957.444814414657

DIPOLE MOMENT
-------------
                                X             Y             Z
Electronic contribution:     -0.00000      -0.00000       1.15643
Nuclear contribution   :      0.00000       0.00000      -2.84584
                        -----------------------------------------
Total Dipole Moment    :     -0.00000      -0.00000      -1.68940
                        -----------------------------------------
Magnitude (a.u.)       :      1.68940
Magnitude (Debye)      :      4.29412

Rotational constants in cm-1:     0.000000     0.102086     0.102086
Rotational constants in MHz :     0.000000  3060.463500  3060.463500

                             ****ORCA TERMINATED NORMALLY****
TOTAL RUN TIME: 0 days 0 hours 0 minutes 13 seconds 552 msec
