                         Program Version 4.2.0 -  RELEASE  -
|  1> #
|  2> # 43_NiH scanfunc/aug-cc-pvtz
|  3> #
|  4> ! scanfunc d3bj aug-cc-pvtz def2/j grid4 nofinalgrid
|  5>
|  6> *xyz 0 2
|  7>   Ni  0.00000000000000      0.00000000000000      0.25339129346416
|  8>   H   0.00000000000000      0.00000000000000      1.74660870653584
|  9> *
| 10>
| 11> %pal
| 12> nprocs 24
| 13> end
| 14>
| 15>
| 16>                          ****END OF INPUT****

CARTESIAN COORDINATES (ANGSTROEM)
---------------------------------
  Ni     0.000000    0.000000    0.253391
  H      0.000000    0.000000    1.746609

 Total Charge           Charge          ....    0
 Multiplicity           Mult            ....    2
 Number of Electrons    NEL             ....   29
 Basis Dimension        Dim             ....  116

ORBITAL ENERGIES
----------------
                 SPIN UP ORBITALS
  NO   OCC          E(Eh)            E(eV)
   0   1.0000    -299.200653     -8141.6637
   1   1.0000     -35.527005      -966.7389
   2   1.0000     -30.924226      -841.4910
   3   1.0000     -30.898858      -840.8007
   4   1.0000     -30.898858      -840.8007
   5   1.0000      -3.915030      -106.5334
   6   1.0000      -2.539004       -69.0898
   7   1.0000      -2.470100       -67.2148
   8   1.0000      -2.470100       -67.2148
   9   1.0000      -0.291249        -7.9253
  10   1.0000      -0.210278        -5.7219
  11   1.0000      -0.188780        -5.1370
  12   1.0000      -0.188780        -5.1370
  13   1.0000      -0.166163        -4.5215
  14   1.0000      -0.166141        -4.5209
  15   0.0000      -0.091511        -2.4901
  16   0.0000      -0.018483        -0.5029
  17   0.0000      -0.018482        -0.5029
  18   0.0000       0.020277         0.5518
  19   0.0000       0.028825         0.7844

                 SPIN DOWN ORBITALS
  NO   OCC          E(Eh)            E(eV)
   0   1.0000    -299.198952     -8141.6174
   1   1.0000     -35.525129      -966.6879
   2   1.0000     -30.918147      -841.3256
   3   1.0000     -30.890871      -840.5833
   4   1.0000     -30.890871      -840.5833
   5   1.0000      -3.873181      -105.3946
   6   1.0000      -2.452613       -66.7390
   7   1.0000      -2.452613       -66.7390
   8   1.0000      -2.450936       -66.6934
   9   1.0000      -0.272066        -7.4033
  10   1.0000      -0.193297        -5.2599
  11   1.0000      -0.193297        -5.2599
  12   1.0000      -0.133951        -3.6450
  13   1.0000      -0.133900        -3.6436
  14   0.0000      -0.107147        -2.9156
  15   0.0000      -0.066710        -1.8153
  16   0.0000      -0.003503        -0.0953
  17   0.0000      -0.003503        -0.0953
  18   0.0000       0.021993         0.5985

MULLIKEN ATOMIC CHARGES AND SPIN POPULATIONS
--------------------------------------------
   0 Ni:    0.051387    1.057483
   1 H :   -0.051387   -0.057483
Sum of atomic charges         :    0.0000000

LOEWDIN ATOMIC CHARGES AND SPIN POPULATIONS
-------------------------------------------
   0 Ni:    0.550243    0.983260
   1 H :   -0.550243    0.016740

  Mayer bond orders larger than 0.100000
B(  0-Ni,  1-H ) :   1.0662

Dispersion correction           -0.000077522
FINAL SINGLE POINT ENERGY     -1509.003561823878

DIPOLE MOMENT
-------------
                                X             Y             Z
Electronic contribution:      0.00000      -0.00000      -2.47632
Nuclear contribution   :      0.00000       0.00000       1.44028
                        -----------------------------------------
Total Dipole Moment    :      0.00000      -0.00000      -1.03603
                        -----------------------------------------
Magnitude (a.u.)       :      1.03603
Magnitude (Debye)      :      2.63339

Rotational constants in cm-1:     0.000000     7.629300     7.629300
Rotational constants in MHz :     0.000000 228720.664008 228720.664008

                             ****ORCA TERMINATED NORMALLY****
TOTAL RUN TIME: 0 days 0 hours 0 minutes 6 seconds 650 msec
