                         Program Version 4.2.0 -  RELEASE  -
|  1> #
|  2> # 47_NiO scanfunc/aug-cc-pvtz
|  3> #
|  4> ! scanfunc d3bj aug-cc-pvtz def2/j grid4 nofinalgrid
|  5>
|  6> *xyz 0 3
|  7>   Ni  0.00000000000000      0.00000000000000      0.18512940996137
|  8>   O   0.00000000000000      0.00000000000000      1.81487059003863
|  9> *
| 10>
| 11> %pal
| 12> nprocs 24
| 13> end
| 14>
| 15>
| 16>                          ****END OF INPUT****

CARTESIAN COORDINATES (ANGSTROEM)
---------------------------------
  Ni     0.000000    0.000000    0.185129
  O      0.000000    0.000000    1.814871

 Total Charge           Charge          ....    0
 Multiplicity           Mult            ....    3
 Number of Electrons    NEL             ....   36
 Basis Dimension        Dim             ....  139

ORBITAL ENERGIES
----------------
                 SPIN UP ORBITALS
  NO   OCC          E(Eh)            E(eV)
   0   1.0000    -299.289104     -8144.0705
   1   1.0000     -35.625806      -969.4275
   2   1.0000     -31.016089      -843.9907
   3   1.0000     -31.005163      -843.6934
   4   1.0000     -31.005163      -843.6934
   5   1.0000     -18.959915      -515.9255
   6   1.0000      -4.027129      -109.5837
   7   1.0000      -2.640505       -71.8518
   8   1.0000      -2.584604       -70.3306
   9   1.0000      -2.584603       -70.3306
  10   1.0000      -0.894625       -24.3440
  11   1.0000      -0.362975        -9.8770
  12   1.0000      -0.353356        -9.6153
  13   1.0000      -0.353353        -9.6152
  14   1.0000      -0.255043        -6.9401
  15   1.0000      -0.255040        -6.9400
  16   1.0000      -0.251537        -6.8447
  17   1.0000      -0.251534        -6.8446
  18   1.0000      -0.227498        -6.1905
  19   0.0000      -0.136386        -3.7112
  20   0.0000      -0.007494        -0.2039
  21   0.0000      -0.007494        -0.2039
  22   0.0000       0.015240         0.4147
  23   0.0000       0.024182         0.6580

                 SPIN DOWN ORBITALS
  NO   OCC          E(Eh)            E(eV)
   0   1.0000    -299.287116     -8144.0165
   1   1.0000     -35.626016      -969.4332
   2   1.0000     -31.000487      -843.5661
   3   1.0000     -30.998273      -843.5059
   4   1.0000     -30.998273      -843.5059
   5   1.0000     -18.959235      -515.9070
   6   1.0000      -3.962529      -107.8259
   7   1.0000      -2.554655       -69.5157
   8   1.0000      -2.528824       -68.8128
   9   1.0000      -2.528824       -68.8128
  10   1.0000      -0.823941       -22.4206
  11   1.0000      -0.339849        -9.2478
  12   1.0000      -0.266767        -7.2591
  13   1.0000      -0.266766        -7.2591
  14   1.0000      -0.221756        -6.0343
  15   1.0000      -0.221639        -6.0311
  16   1.0000      -0.216964        -5.9039
  17   0.0000      -0.146967        -3.9992
  18   0.0000      -0.146964        -3.9991
  19   0.0000      -0.115377        -3.1396
  20   0.0000      -0.000761        -0.0207
  21   0.0000      -0.000761        -0.0207

MULLIKEN ATOMIC CHARGES AND SPIN POPULATIONS
--------------------------------------------
   0 Ni:    0.538382    1.061219
   1 O :   -0.538382    0.938781
Sum of atomic charges         :   -0.0000000

LOEWDIN ATOMIC CHARGES AND SPIN POPULATIONS
-------------------------------------------
   0 Ni:    0.500197    1.152363
   1 O :   -0.500197    0.847637

  Mayer bond orders larger than 0.100000
B(  0-Ni,  1-O ) :   1.9384

Dispersion correction           -0.000100298
FINAL SINGLE POINT ENERGY     -1583.624136211611

DIPOLE MOMENT
-------------
                                X             Y             Z
Electronic contribution:      0.00000       0.00000      -2.60658
Nuclear contribution   :      0.00000       0.00000       0.89170
                        -----------------------------------------
Total Dipole Moment    :      0.00000       0.00000      -1.71488
                        -----------------------------------------
Magnitude (a.u.)       :      1.71488
Magnitude (Debye)      :      4.35887

Rotational constants in cm-1:     0.000000     0.504828     0.504828
Rotational constants in MHz :     0.000000 15134.363944 15134.363944

                             ****ORCA TERMINATED NORMALLY****
TOTAL RUN TIME: 0 days 0 hours 0 minutes 10 seconds 338 msec
