                         Program Version 4.2.0 -  RELEASE  -
|  1> #
|  2> # 48_NiS scanfunc/aug-cc-pvtz
|  3> #
|  4> ! scanfunc d3bj aug-cc-pvtz def2/j grid4 nofinalgrid
|  5>
|  6> *xyz 0 3
|  7>   Ni  0.00000000000000      0.00000000000000      0.01491413562016
|  8>   S   0.00000000000000      0.00000000000000      1.98508586437984
|  9> *
| 10>
| 11> %pal
| 12> nprocs 24
| 13> end
| 14>
| 15>
| 16>                          ****END OF INPUT****

CARTESIAN COORDINATES (ANGSTROEM)
---------------------------------
  Ni     0.000000    0.000000    0.014914
  S      0.000000    0.000000    1.985086

 Total Charge           Charge          ....    0
 Multiplicity           Mult            ....    3
 Number of Electrons    NEL             ....   44
 Basis Dimension        Dim             ....  143

ORBITAL ENERGIES
----------------
                 SPIN UP ORBITALS
  NO   OCC          E(Eh)            E(eV)
   0   1.0000    -299.280695     -8143.8417
   1   1.0000     -88.649797     -2412.2836
   2   1.0000     -35.615006      -969.1336
   3   1.0000     -31.006981      -843.7428
   4   1.0000     -30.992814      -843.3573
   5   1.0000     -30.992814      -843.3573
   6   1.0000      -7.857046      -213.8011
   7   1.0000      -5.795045      -157.6912
   8   1.0000      -5.795045      -157.6912
   9   1.0000      -5.790041      -157.5550
  10   1.0000      -4.014161      -109.2309
  11   1.0000      -2.625351       -71.4394
  12   1.0000      -2.574029       -70.0429
  13   1.0000      -2.574029       -70.0429
  14   1.0000      -0.633967       -17.2511
  15   1.0000      -0.321725        -8.7546
  16   1.0000      -0.317586        -8.6420
  17   1.0000      -0.317586        -8.6420
  18   1.0000      -0.248541        -6.7631
  19   1.0000      -0.248541        -6.7631
  20   1.0000      -0.234201        -6.3729
  21   1.0000      -0.222919        -6.0659
  22   1.0000      -0.222919        -6.0659
  23   0.0000      -0.128654        -3.5009
  24   0.0000      -0.011298        -0.3074
  25   0.0000      -0.011298        -0.3074
  26   0.0000       0.015272         0.4156
  27   0.0000       0.019600         0.5334

                 SPIN DOWN ORBITALS
  NO   OCC          E(Eh)            E(eV)
   0   1.0000    -299.278934     -8143.7938
   1   1.0000     -88.644428     -2412.1375
   2   1.0000     -35.614043      -969.1074
   3   1.0000     -30.990871      -843.3045
   4   1.0000     -30.985721      -843.1643
   5   1.0000     -30.985721      -843.1643
   6   1.0000      -7.845561      -213.4886
   7   1.0000      -5.786931      -157.4704
   8   1.0000      -5.781119      -157.3122
   9   1.0000      -5.781119      -157.3122
  10   1.0000      -3.954578      -107.6095
  11   1.0000      -2.543726       -69.2183
  12   1.0000      -2.522701       -68.6462
  13   1.0000      -2.522701       -68.6462
  14   1.0000      -0.614467       -16.7205
  15   1.0000      -0.313229        -8.5234
  16   1.0000      -0.245945        -6.6925
  17   1.0000      -0.245945        -6.6925
  18   1.0000      -0.227254        -6.1839
  19   1.0000      -0.216903        -5.9022
  20   1.0000      -0.216836        -5.9004
  21   0.0000      -0.157844        -4.2951
  22   0.0000      -0.157844        -4.2951
  23   0.0000      -0.108739        -2.9589
  24   0.0000      -0.004147        -0.1129
  25   0.0000      -0.004147        -0.1129

MULLIKEN ATOMIC CHARGES AND SPIN POPULATIONS
--------------------------------------------
   0 Ni:    0.238721    1.121360
   1 S :   -0.238721    0.878640
Sum of atomic charges         :   -0.0000000

LOEWDIN ATOMIC CHARGES AND SPIN POPULATIONS
-------------------------------------------
   0 Ni:   -0.008900    1.226243
   1 S :    0.008900    0.773757

  Mayer bond orders larger than 0.100000
B(  0-Ni,  1-S ) :   2.3767

Dispersion correction           -0.000200601
FINAL SINGLE POINT ENERGY     -1906.725152004746

DIPOLE MOMENT
-------------
                                X             Y             Z
Electronic contribution:      0.00000       0.00000      -3.33713
Nuclear contribution   :      0.00000       0.00000       1.70320
                        -----------------------------------------
Total Dipole Moment    :      0.00000       0.00000      -1.63393
                        -----------------------------------------
Magnitude (a.u.)       :      1.63393
Magnitude (Debye)      :      4.15311

Rotational constants in cm-1:     0.000000     0.209451     0.209451
Rotational constants in MHz :     0.000000  6279.170942  6279.170942

                             ****ORCA TERMINATED NORMALLY****
TOTAL RUN TIME: 0 days 0 hours 0 minutes 9 seconds 260 msec
