                         Program Version 4.2.0 -  RELEASE  -
|  1> #
|  2> # 49_CuH scanfunc/aug-cc-pvtz
|  3> #
|  4> ! scanfunc d3bj aug-cc-pvtz def2/j grid4 nofinalgrid
|  5>
|  6> *xyz 0 1
|  7>   Cu  0.00000000000000      0.00000000000000      0.26188782360473
|  8>   H   0.00000000000000      0.00000000000000      1.73811217639527
|  9> *
| 10>
| 11> %pal
| 12> nprocs 24
| 13> end
| 14>
| 15>
| 16>                          ****END OF INPUT****

CARTESIAN COORDINATES (ANGSTROEM)
---------------------------------
  Cu     0.000000    0.000000    0.261888
  H      0.000000    0.000000    1.738112

 Total Charge           Charge          ....    0
 Multiplicity           Mult            ....    1
 Number of Electrons    NEL             ....   30
 Basis Dimension        Dim             ....  116

ORBITAL ENERGIES
----------------

  NO   OCC          E(Eh)            E(eV)
   0   2.0000    -322.492078     -8775.4556
   1   2.0000     -38.544747     -1048.8559
   2   2.0000     -33.766602      -918.8360
   3   2.0000     -33.766349      -918.8291
   4   2.0000     -33.766349      -918.8291
   5   2.0000      -4.266054      -116.0852
   6   2.0000      -2.751182       -74.8635
   7   2.0000      -2.738017       -74.5052
   8   2.0000      -2.738017       -74.5052
   9   2.0000      -0.303837        -8.2678
  10   2.0000      -0.232333        -6.3221
  11   2.0000      -0.232333        -6.3221
  12   2.0000      -0.216511        -5.8916
  13   2.0000      -0.216511        -5.8916
  14   2.0000      -0.202895        -5.5210
  15   0.0000      -0.095487        -2.5983
  16   0.0000      -0.014737        -0.4010
  17   0.0000      -0.014737        -0.4010
  18   0.0000       0.021742         0.5916
  19   0.0000       0.029905         0.8138

MULLIKEN ATOMIC CHARGES
-----------------------
   0 Cu:    0.057651
   1 H :   -0.057651
Sum of atomic charges:   -0.0000000

LOEWDIN ATOMIC CHARGES
----------------------
   0 Cu:    0.482817
   1 H :   -0.482817

  Mayer bond orders larger than 0.100000
B(  0-Cu,  1-H ) :   1.0737

Dispersion correction           -0.000062668
FINAL SINGLE POINT ENERGY     -1641.253046779638

DIPOLE MOMENT
-------------
                                X             Y             Z
Electronic contribution:      0.00000       0.00000      -2.43490
Nuclear contribution   :      0.00000       0.00000       1.48294
                        -----------------------------------------
Total Dipole Moment    :      0.00000       0.00000      -0.95196
                        -----------------------------------------
Magnitude (a.u.)       :      0.95196
Magnitude (Debye)      :      2.41968

Rotational constants in cm-1:     0.000000     7.795898     7.795898
Rotational constants in MHz :     0.000000 233715.143643 233715.143643

                             ****ORCA TERMINATED NORMALLY****
TOTAL RUN TIME: 0 days 0 hours 0 minutes 6 seconds 487 msec
