                         Program Version 4.2.0 -  RELEASE  -
|  1> #
|  2> # 50_CuF scanfunc/aug-cc-pvtz
|  3> #
|  4> ! scanfunc d3bj aug-cc-pvtz def2/j grid4 nofinalgrid
|  5>
|  6> *xyz 0 1
|  7>   Cu  0.00000000000000      0.00000000000000      0.12224745624860
|  8>   F   0.00000000000000      0.00000000000000      1.87775254375140
|  9> *
| 10>
| 11> %pal
| 12> nprocs 24
| 13> end
| 14>
| 15>
| 16>                          ****END OF INPUT****

CARTESIAN COORDINATES (ANGSTROEM)
---------------------------------
  Cu     0.000000    0.000000    0.122247
  F      0.000000    0.000000    1.877753

 Total Charge           Charge          ....    0
 Multiplicity           Mult            ....    1
 Number of Electrons    NEL             ....   38
 Basis Dimension        Dim             ....  139

ORBITAL ENERGIES
----------------

  NO   OCC          E(Eh)            E(eV)
   0   2.0000    -322.518994     -8776.1880
   1   2.0000     -38.569303     -1049.5241
   2   2.0000     -33.790912      -919.4975
   3   2.0000     -33.790912      -919.4975
   4   2.0000     -33.790447      -919.4848
   5   2.0000     -24.426804      -664.6871
   6   2.0000      -4.293763      -116.8392
   7   2.0000      -2.780271       -75.6550
   8   2.0000      -2.765605       -75.2559
   9   2.0000      -2.765605       -75.2559
  10   2.0000      -1.032612       -28.0988
  11   2.0000      -0.355337        -9.6692
  12   2.0000      -0.319086        -8.6828
  13   2.0000      -0.319086        -8.6828
  14   2.0000      -0.244777        -6.6607
  15   2.0000      -0.244773        -6.6606
  16   2.0000      -0.238340        -6.4856
  17   2.0000      -0.238340        -6.4856
  18   2.0000      -0.222893        -6.0652
  19   0.0000      -0.139516        -3.7964
  20   0.0000      -0.010643        -0.2896
  21   0.0000      -0.010643        -0.2896
  22   0.0000       0.015318         0.4168
  23   0.0000       0.025625         0.6973

MULLIKEN ATOMIC CHARGES
-----------------------
   0 Cu:    0.637295
   1 F :   -0.637295
Sum of atomic charges:   -0.0000000

LOEWDIN ATOMIC CHARGES
----------------------
   0 Cu:    0.405413
   1 F :   -0.405413

  Mayer bond orders larger than 0.100000
B(  0-Cu,  1-F ) :   0.6893

Dispersion correction           -0.000067391
FINAL SINGLE POINT ENERGY     -1740.544664085632

DIPOLE MOMENT
-------------
                                X             Y             Z
Electronic contribution:     -0.00000       0.00000      -2.68570
Nuclear contribution   :      0.00000       0.00000       0.84427
                        -----------------------------------------
Total Dipole Moment    :     -0.00000       0.00000      -1.84144
                        -----------------------------------------
Magnitude (a.u.)       :      1.84144
Magnitude (Debye)      :      4.68056

Rotational constants in cm-1:     0.000000     0.374004     0.374004
Rotational constants in MHz :     0.000000 11212.347169 11212.347169

                             ****ORCA TERMINATED NORMALLY****
TOTAL RUN TIME: 0 days 0 hours 0 minutes 7 seconds 907 msec
