                         Program Version 4.2.0 -  RELEASE  -
|  1> #
|  2> # 55_ZnH scanfunc/aug-cc-pvtz
|  3> #
|  4> ! scanfunc d3bj aug-cc-pvtz def2/j grid4 nofinalgrid
|  5>
|  6> *xyz 0 2
|  7>   Zn  0.00000000000000      0.00000000000000      0.19402109306576
|  8>   H   0.00000000000000      0.00000000000000      1.80597890693424
|  9> *
| 10>
| 11> %pal
| 12> nprocs 24
| 13> end
| 14>
| 15>
| 16>                          ****END OF INPUT****

CARTESIAN COORDINATES (ANGSTROEM)
---------------------------------
  Zn     0.000000    0.000000    0.194021
  H      0.000000    0.000000    1.805979

 Total Charge           Charge          ....    0
 Multiplicity           Mult            ....    2
 Number of Electrons    NEL             ....   31
 Basis Dimension        Dim             ....  116

ORBITAL ENERGIES
----------------
                 SPIN UP ORBITALS
  NO   OCC          E(Eh)            E(eV)
   0   1.0000    -346.794651     -9436.7622
   1   1.0000     -42.019895     -1143.4195
   2   1.0000     -37.005493     -1006.9706
   3   1.0000     -37.004754     -1006.9505
   4   1.0000     -37.004754     -1006.9505
   5   1.0000      -4.805724      -130.7704
   6   1.0000      -3.172687       -86.3332
   7   1.0000      -3.172687       -86.3332
   8   1.0000      -3.167046       -86.1797
   9   1.0000      -0.439265       -11.9530
  10   1.0000      -0.427978       -11.6459
  11   1.0000      -0.427978       -11.6459
  12   1.0000      -0.425076       -11.5669
  13   1.0000      -0.425076       -11.5669
  14   1.0000      -0.315064        -8.5733
  15   1.0000      -0.179694        -4.8897
  16   0.0000      -0.051364        -1.3977
  17   0.0000      -0.051364        -1.3977
  18   0.0000       0.032372         0.8809
  19   0.0000       0.044029         1.1981
  20   0.0000       0.066645         1.8135

                 SPIN DOWN ORBITALS
  NO   OCC          E(Eh)            E(eV)
   0   1.0000    -346.793454     -9436.7296
   1   1.0000     -42.018252     -1143.3748
   2   1.0000     -37.003707     -1006.9221
   3   1.0000     -37.003707     -1006.9221
   4   1.0000     -37.003416     -1006.9141
   5   1.0000      -4.806780      -130.7991
   6   1.0000      -3.173256       -86.3487
   7   1.0000      -3.173256       -86.3487
   8   1.0000      -3.167456       -86.1909
   9   1.0000      -0.430629       -11.7180
  10   1.0000      -0.425280       -11.5725
  11   1.0000      -0.425280       -11.5724
  12   1.0000      -0.421540       -11.4707
  13   1.0000      -0.421540       -11.4707
  14   1.0000      -0.291176        -7.9233
  15   0.0000      -0.101680        -2.7668
  16   0.0000      -0.026196        -0.7128
  17   0.0000      -0.026196        -0.7128
  18   0.0000      -0.014113        -0.3840
  19   0.0000       0.049672         1.3516

MULLIKEN ATOMIC CHARGES AND SPIN POPULATIONS
--------------------------------------------
   0 Zn:    0.157162    0.657205
   1 H :   -0.157162    0.342795
Sum of atomic charges         :    0.0000000

LOEWDIN ATOMIC CHARGES AND SPIN POPULATIONS
-------------------------------------------
   0 Zn:    0.529858    0.777233
   1 H :   -0.529858    0.222767

  Mayer bond orders larger than 0.100000
B(  0-Zn,  1-H ) :   0.8498

Dispersion correction           -0.000077293
FINAL SINGLE POINT ENERGY     -1780.193839450522

DIPOLE MOMENT
-------------
                                X             Y             Z
Electronic contribution:     -0.00000       0.00000      -1.83857
Nuclear contribution   :      0.00000       0.00000       1.61237
                        -----------------------------------------
Total Dipole Moment    :     -0.00000       0.00000      -0.22620
                        -----------------------------------------
Magnitude (a.u.)       :      0.22620
Magnitude (Debye)      :      0.57495

Rotational constants in cm-1:     0.000000     6.535423     6.535423
Rotational constants in MHz :     0.000000 195927.048997 195927.048997

                             ****ORCA TERMINATED NORMALLY****
TOTAL RUN TIME: 0 days 0 hours 0 minutes 5 seconds 462 msec
