                         Program Version 4.2.0 -  RELEASE  -
|  1> #
|  2> # 56_ZnF scanfunc/aug-cc-pvtz
|  3> #
|  4> ! scanfunc d3bj aug-cc-pvtz def2/j grid4 nofinalgrid
|  5>
|  6> *xyz 0 2
|  7>   Zn  0.00000000000000      0.00000000000000      0.10305473518103
|  8>   F   0.00000000000000      0.00000000000000      1.89694526481897
|  9> *
| 10>
| 11> %pal
| 12> nprocs 24
| 13> end
| 14>
| 15>
| 16>                          ****END OF INPUT****

CARTESIAN COORDINATES (ANGSTROEM)
---------------------------------
  Zn     0.000000    0.000000    0.103055
  F      0.000000    0.000000    1.896945

 Total Charge           Charge          ....    0
 Multiplicity           Mult            ....    2
 Number of Electrons    NEL             ....   39
 Basis Dimension        Dim             ....  139

ORBITAL ENERGIES
----------------
                 SPIN UP ORBITALS
  NO   OCC          E(Eh)            E(eV)
   0   1.0000    -346.813886     -9437.2856
   1   1.0000     -42.035743     -1143.8507
   2   1.0000     -37.021726     -1007.4124
   3   1.0000     -37.021726     -1007.4124
   4   1.0000     -37.019800     -1007.3600
   5   1.0000     -24.442925      -665.1258
   6   1.0000      -4.825845      -131.3179
   7   1.0000      -3.193891       -86.9102
   8   1.0000      -3.193891       -86.9102
   9   1.0000      -3.186302       -86.7037
  10   1.0000      -1.055435       -28.7198
  11   1.0000      -0.463862       -12.6223
  12   1.0000      -0.451216       -12.2782
  13   1.0000      -0.451216       -12.2782
  14   1.0000      -0.451208       -12.2780
  15   1.0000      -0.451205       -12.2779
  16   1.0000      -0.354502        -9.6465
  17   1.0000      -0.311092        -8.4653
  18   1.0000      -0.311092        -8.4653
  19   1.0000      -0.230908        -6.2833
  20   0.0000      -0.051349        -1.3973
  21   0.0000      -0.051348        -1.3973
  22   0.0000       0.013633         0.3710
  23   0.0000       0.039300         1.0694
  24   0.0000       0.058750         1.5987

                 SPIN DOWN ORBITALS
  NO   OCC          E(Eh)            E(eV)
   0   1.0000    -346.812073     -9437.2363
   1   1.0000     -42.034206     -1143.8089
   2   1.0000     -37.020134     -1007.3691
   3   1.0000     -37.020134     -1007.3691
   4   1.0000     -37.018807     -1007.3330
   5   1.0000     -24.436985      -664.9642
   6   1.0000      -4.828027      -131.3773
   7   1.0000      -3.195197       -86.9457
   8   1.0000      -3.195197       -86.9457
   9   1.0000      -3.187729       -86.7425
  10   1.0000      -1.047099       -28.4930
  11   1.0000      -0.454222       -12.3600
  12   1.0000      -0.446995       -12.1633
  13   1.0000      -0.446995       -12.1633
  14   1.0000      -0.446361       -12.1461
  15   1.0000      -0.446358       -12.1460
  16   1.0000      -0.330867        -9.0034
  17   1.0000      -0.309666        -8.4264
  18   1.0000      -0.309666        -8.4264
  19   0.0000      -0.153900        -4.1878
  20   0.0000      -0.036870        -1.0033
  21   0.0000      -0.024428        -0.6647
  22   0.0000      -0.024427        -0.6647
  23   0.0000       0.019853         0.5402

MULLIKEN ATOMIC CHARGES AND SPIN POPULATIONS
--------------------------------------------
   0 Zn:    0.639392    0.918934
   1 F :   -0.639392    0.081066
Sum of atomic charges         :    0.0000000

LOEWDIN ATOMIC CHARGES AND SPIN POPULATIONS
-------------------------------------------
   0 Zn:    0.523266    0.824274
   1 F :   -0.523266    0.175726

  Mayer bond orders larger than 0.100000
B(  0-Zn,  1-F ) :   0.5756

Dispersion correction           -0.000076585
FINAL SINGLE POINT ENERGY     -1879.509295307859

DIPOLE MOMENT
-------------
                                X             Y             Z
Electronic contribution:      0.00000       0.00000      -1.89228
Nuclear contribution   :      0.00000       0.00000       0.74245
                        -----------------------------------------
Total Dipole Moment    :      0.00000       0.00000      -1.14983
                        -----------------------------------------
Magnitude (a.u.)       :      1.14983
Magnitude (Debye)      :      2.92262

Rotational constants in cm-1:     0.000000     0.355862     0.355862
Rotational constants in MHz :     0.000000 10668.470416 10668.470416

                             ****ORCA TERMINATED NORMALLY****
TOTAL RUN TIME: 0 days 0 hours 0 minutes 5 seconds 989 msec
