                         Program Version 4.2.0 -  RELEASE  -
|  1> #
|  2> # 57_ZnCl scanfunc/aug-cc-pvtz
|  3> #
|  4> ! scanfunc d3bj aug-cc-pvtz def2/j grid4 nofinalgrid
|  5>
|  6> *xyz 0 2
|  7>   Zn  0.00000000000000      0.00000000000000     -0.08307444970280
|  8>   Cl  0.00000000000000      0.00000000000000      2.08307444970280
|  9> *
| 10>
| 11> %pal
| 12> nprocs 24
| 13> end
| 14>
| 15>
| 16>                          ****END OF INPUT****

CARTESIAN COORDINATES (ANGSTROEM)
---------------------------------
  Zn     0.000000    0.000000   -0.083074
  Cl     0.000000    0.000000    2.083074

 Total Charge           Charge          ....    0
 Multiplicity           Mult            ....    2
 Number of Electrons    NEL             ....   47
 Basis Dimension        Dim             ....  143

ORBITAL ENERGIES
----------------
                 SPIN UP ORBITALS
  NO   OCC          E(Eh)            E(eV)
   0   1.0000    -346.824341     -9437.5701
   1   1.0000    -101.260478     -2755.4377
   2   1.0000     -42.046786     -1144.1512
   3   1.0000     -37.032371     -1007.7020
   4   1.0000     -37.032371     -1007.7020
   5   1.0000     -37.031711     -1007.6841
   6   1.0000      -9.310176      -253.3428
   7   1.0000      -7.071429      -192.4234
   8   1.0000      -7.065367      -192.2584
   9   1.0000      -7.065367      -192.2584
  10   1.0000      -4.835324      -131.5758
  11   1.0000      -3.202298       -87.1390
  12   1.0000      -3.202298       -87.1390
  13   1.0000      -3.197604       -87.0112
  14   1.0000      -0.758803       -20.6481
  15   1.0000      -0.463868       -12.6225
  16   1.0000      -0.458630       -12.4800
  17   1.0000      -0.458623       -12.4798
  18   1.0000      -0.458403       -12.4738
  19   1.0000      -0.458403       -12.4738
  20   1.0000      -0.349543        -9.5115
  21   1.0000      -0.284411        -7.7392
  22   1.0000      -0.284411        -7.7392
  23   1.0000      -0.225096        -6.1252
  24   0.0000      -0.057302        -1.5593
  25   0.0000      -0.057302        -1.5593
  26   0.0000       0.011886         0.3234
  27   0.0000       0.032533         0.8853
  28   0.0000       0.051793         1.4093

                 SPIN DOWN ORBITALS
  NO   OCC          E(Eh)            E(eV)
   0   1.0000    -346.822640     -9437.5238
   1   1.0000    -101.258533     -2755.3848
   2   1.0000     -42.045456     -1144.1150
   3   1.0000     -37.031056     -1007.6663
   4   1.0000     -37.031056     -1007.6663
   5   1.0000     -37.030606     -1007.6540
   6   1.0000      -9.315157      -253.4783
   7   1.0000      -7.069096      -192.3599
   8   1.0000      -7.066298      -192.2837
   9   1.0000      -7.066298      -192.2837
  10   1.0000      -4.837575      -131.6371
  11   1.0000      -3.203789       -87.1795
  12   1.0000      -3.203789       -87.1795
  13   1.0000      -3.199007       -87.0494
  14   1.0000      -0.741486       -20.1769
  15   1.0000      -0.457093       -12.4381
  16   1.0000      -0.454314       -12.3625
  17   1.0000      -0.454305       -12.3623
  18   1.0000      -0.454305       -12.3623
  19   1.0000      -0.454305       -12.3623
  20   1.0000      -0.328495        -8.9388
  21   1.0000      -0.279941        -7.6176
  22   1.0000      -0.279941        -7.6176
  23   0.0000      -0.151107        -4.1118
  24   0.0000      -0.030999        -0.8435
  25   0.0000      -0.030999        -0.8435
  26   0.0000      -0.029175        -0.7939
  27   0.0000       0.016966         0.4617

MULLIKEN ATOMIC CHARGES AND SPIN POPULATIONS
--------------------------------------------
   0 Zn:    0.496867    0.843256
   1 Cl:   -0.496867    0.156744
Sum of atomic charges         :   -0.0000000

LOEWDIN ATOMIC CHARGES AND SPIN POPULATIONS
-------------------------------------------
   0 Zn:    0.218975    0.778415
   1 Cl:   -0.218975    0.221585

  Mayer bond orders larger than 0.100000
B(  0-Zn,  1-Cl) :   0.8553

Dispersion correction           -0.000184999
FINAL SINGLE POINT ENERGY     -2239.891638367408

DIPOLE MOMENT
-------------
                                X             Y             Z
Electronic contribution:      0.00000       0.00000      -3.00741
Nuclear contribution   :      0.00000       0.00000       1.94334
                        -----------------------------------------
Total Dipole Moment    :      0.00000       0.00000      -1.06408
                        -----------------------------------------
Magnitude (a.u.)       :      1.06408
Magnitude (Debye)      :      2.70467

Rotational constants in cm-1:     0.000000     0.156288     0.156288
Rotational constants in MHz :     0.000000  4685.390286  4685.390286

                             ****ORCA TERMINATED NORMALLY****
TOTAL RUN TIME: 0 days 0 hours 0 minutes 6 seconds 677 msec
