                         Program Version 4.2.0 -  RELEASE  -
|  1> #
|  2> # 58_ZnBr scanfunc/aug-cc-pvtz
|  3> #
|  4> ! scanfunc d3bj aug-cc-pvtz def2/j grid4 nofinalgrid
|  5>
|  6> *xyz 0 2
|  7>   Zn  0.00000000000000      0.00000000000000     -0.15390624723259
|  8>   Br  0.00000000000000      0.00000000000000      2.15390624723258
|  9> *
| 10>
| 11> %pal
| 12> nprocs 24
| 13> end
| 14>
| 15>
| 16>                          ****END OF INPUT****

CARTESIAN COORDINATES (ANGSTROEM)
---------------------------------
  Zn     0.000000    0.000000   -0.153906
  Br     0.000000    0.000000    2.153906

 Total Charge           Charge          ....    0
 Multiplicity           Mult            ....    2
 Number of Electrons    NEL             ....   65
 Basis Dimension        Dim             ....  152

ORBITAL ENERGIES
----------------
                 SPIN UP ORBITALS
  NO   OCC          E(Eh)            E(eV)
   0   1.0000    -482.254505    -13122.8122
   1   1.0000    -346.825346     -9437.5975
   2   1.0000     -62.295080     -1695.1353
   3   1.0000     -56.097320     -1526.4857
   4   1.0000     -56.095580     -1526.4383
   5   1.0000     -56.095580     -1526.4383
   6   1.0000     -42.047780     -1144.1783
   7   1.0000     -37.033284     -1007.7269
   8   1.0000     -37.033284     -1007.7269
   9   1.0000     -37.032920     -1007.7170
  10   1.0000      -8.642228      -235.1670
  11   1.0000      -6.432517      -175.0377
  12   1.0000      -6.425775      -174.8542
  13   1.0000      -6.425775      -174.8542
  14   1.0000      -4.835971      -131.5935
  15   1.0000      -3.202711       -87.1502
  16   1.0000      -3.202711       -87.1502
  17   1.0000      -3.198665       -87.0401
  18   1.0000      -2.511288       -68.3356
  19   1.0000      -2.509451       -68.2856
  20   1.0000      -2.509451       -68.2856
  21   1.0000      -2.504258       -68.1443
  22   1.0000      -2.504211       -68.1430
  23   1.0000      -0.716385       -19.4938
  24   1.0000      -0.462173       -12.5764
  25   1.0000      -0.458909       -12.4876
  26   1.0000      -0.458902       -12.4874
  27   1.0000      -0.458508       -12.4766
  28   1.0000      -0.458508       -12.4766
  29   1.0000      -0.340494        -9.2653
  30   1.0000      -0.266917        -7.2632
  31   1.0000      -0.266917        -7.2632
  32   1.0000      -0.220923        -6.0116
  33   0.0000      -0.059478        -1.6185
  34   0.0000      -0.059478        -1.6185
  35   0.0000       0.008139         0.2215
  36   0.0000       0.028921         0.7870
  37   0.0000       0.048665         1.3243

                 SPIN DOWN ORBITALS
  NO   OCC          E(Eh)            E(eV)
   0   1.0000    -482.253909    -13122.7960
   1   1.0000    -346.823669     -9437.5518
   2   1.0000     -62.293673     -1695.0970
   3   1.0000     -56.095569     -1526.4380
   4   1.0000     -56.095569     -1526.4380
   5   1.0000     -56.093353     -1526.3777
   6   1.0000     -42.046524     -1144.1441
   7   1.0000     -37.032049     -1007.6933
   8   1.0000     -37.032049     -1007.6933
   9   1.0000     -37.031804     -1007.6866
  10   1.0000      -8.641029      -235.1343
  11   1.0000      -6.430224      -174.9753
  12   1.0000      -6.425159      -174.8375
  13   1.0000      -6.425159      -174.8375
  14   1.0000      -4.838276      -131.6562
  15   1.0000      -3.204273       -87.1927
  16   1.0000      -3.204273       -87.1927
  17   1.0000      -3.200108       -87.0794
  18   1.0000      -2.509221       -68.2794
  19   1.0000      -2.507691       -68.2377
  20   1.0000      -2.507691       -68.2377
  21   1.0000      -2.503942       -68.1357
  22   1.0000      -2.503893       -68.1344
  23   1.0000      -0.709053       -19.2943
  24   1.0000      -0.456120       -12.4117
  25   1.0000      -0.454734       -12.3739
  26   1.0000      -0.454723       -12.3736
  27   1.0000      -0.454418       -12.3653
  28   1.0000      -0.454418       -12.3653
  29   1.0000      -0.322552        -8.7771
  30   1.0000      -0.265135        -7.2147
  31   1.0000      -0.265135        -7.2147
  32   0.0000      -0.152293        -4.1441
  33   0.0000      -0.033332        -0.9070
  34   0.0000      -0.033332        -0.9070
  35   0.0000      -0.024125        -0.6565
  36   0.0000       0.014575         0.3966

MULLIKEN ATOMIC CHARGES AND SPIN POPULATIONS
--------------------------------------------
   0 Zn:    0.440349    0.803001
   1 Br:   -0.440349    0.196999
Sum of atomic charges         :   -0.0000000

LOEWDIN ATOMIC CHARGES AND SPIN POPULATIONS
-------------------------------------------
   0 Zn:    0.157614    0.767608
   1 Br:   -0.157614    0.232392

  Mayer bond orders larger than 0.100000
B(  0-Zn,  1-Br) :   0.9053

Dispersion correction           -0.000194291
FINAL SINGLE POINT ENERGY     -4354.192473255439

DIPOLE MOMENT
-------------
                                X             Y             Z
Electronic contribution:     -0.00000       0.00000       2.25145
Nuclear contribution   :      0.00000       0.00000      -3.26305
                        -----------------------------------------
Total Dipole Moment    :     -0.00000       0.00000      -1.01160
                        -----------------------------------------
Magnitude (a.u.)       :      1.01160
Magnitude (Debye)      :      2.57128

Rotational constants in cm-1:     0.000000     0.088026     0.088026
Rotational constants in MHz :     0.000000  2638.947188  2638.947188

                             ****ORCA TERMINATED NORMALLY****
TOTAL RUN TIME: 0 days 0 hours 0 minutes 8 seconds 302 msec
