                         Program Version 4.2.0 -  RELEASE  -
|  1> #
|  2> # 59_ZnO scanfunc/aug-cc-pvtz
|  3> #
|  4> ! scanfunc d3bj aug-cc-pvtz def2/j grid4 nofinalgrid
|  5>
|  6> *xyz 0 1
|  7>   Zn  0.00000000000000      0.00000000000000      0.14991809043900
|  8>   O   0.00000000000000      0.00000000000000      1.85008190956100
|  9> *
| 10>
| 11> %pal
| 12> nprocs 24
| 13> end
| 14>
| 15>
| 16>                          ****END OF INPUT****

CARTESIAN COORDINATES (ANGSTROEM)
---------------------------------
  Zn     0.000000    0.000000    0.149918
  O      0.000000    0.000000    1.850082

 Total Charge           Charge          ....    0
 Multiplicity           Mult            ....    1
 Number of Electrons    NEL             ....   38
 Basis Dimension        Dim             ....  139

ORBITAL ENERGIES
----------------

  NO   OCC          E(Eh)            E(eV)
   0   2.0000    -346.835656     -9437.8780
   1   2.0000     -42.060706     -1144.5300
   2   2.0000     -37.045901     -1008.0702
   3   2.0000     -37.045901     -1008.0702
   4   2.0000     -37.045784     -1008.0670
   5   2.0000     -18.936838      -515.2976
   6   2.0000      -4.849540      -131.9627
   7   2.0000      -3.215252       -87.4915
   8   2.0000      -3.213566       -87.4456
   9   2.0000      -3.213566       -87.4456
  10   2.0000      -0.832761       -22.6606
  11   2.0000      -0.472517       -12.8578
  12   2.0000      -0.471719       -12.8361
  13   2.0000      -0.471719       -12.8361
  14   2.0000      -0.464728       -12.6459
  15   2.0000      -0.464727       -12.6459
  16   2.0000      -0.294413        -8.0114
  17   2.0000      -0.224252        -6.1022
  18   2.0000      -0.224252        -6.1022
  19   0.0000      -0.183799        -5.0014
  20   0.0000      -0.029464        -0.8018
  21   0.0000      -0.029464        -0.8018
  22   0.0000       0.012353         0.3361
  23   0.0000       0.024772         0.6741

MULLIKEN ATOMIC CHARGES
-----------------------
   0 Zn:    0.778063
   1 O :   -0.778063
Sum of atomic charges:   -0.0000000

LOEWDIN ATOMIC CHARGES
----------------------
   0 Zn:    0.675118
   1 O :   -0.675118

  Mayer bond orders larger than 0.100000
B(  0-Zn,  1-O ) :   1.6306

Dispersion correction           -0.000101213
FINAL SINGLE POINT ENERGY     -1854.772236013598

DIPOLE MOMENT
-------------
                                X             Y             Z
Electronic contribution:      0.00000      -0.00000      -3.83808
Nuclear contribution   :      0.00000       0.00000       1.70040
                        -----------------------------------------
Total Dipole Moment    :      0.00000      -0.00000      -2.13768
                        -----------------------------------------
Magnitude (a.u.)       :      2.13768
Magnitude (Debye)      :      5.43355

Rotational constants in cm-1:     0.000000     0.453722     0.453722
Rotational constants in MHz :     0.000000 13602.247054 13602.247054

                             ****ORCA TERMINATED NORMALLY****
TOTAL RUN TIME: 0 days 0 hours 0 minutes 7 seconds 395 msec
