                         Program Version 4.2.0 -  RELEASE  -
|  1> #
|  2> # 60_ZnS scanfunc/aug-cc-pvtz
|  3> #
|  4> ! scanfunc d3bj aug-cc-pvtz def2/j grid4 nofinalgrid
|  5>
|  6> *xyz 0 1
|  7>   Zn  0.00000000000000      0.00000000000000     -0.02757018403008
|  8>   S   0.00000000000000      0.00000000000000      2.02757018403008
|  9> *
| 10>
| 11> %pal
| 12> nprocs 24
| 13> end
| 14>
| 15>
| 16>                          ****END OF INPUT****

CARTESIAN COORDINATES (ANGSTROEM)
---------------------------------
  Zn     0.000000    0.000000   -0.027570
  S      0.000000    0.000000    2.027570

 Total Charge           Charge          ....    0
 Multiplicity           Mult            ....    1
 Number of Electrons    NEL             ....   46
 Basis Dimension        Dim             ....  143

ORBITAL ENERGIES
----------------

  NO   OCC          E(Eh)            E(eV)
   0   2.0000    -346.847135     -9438.1904
   1   2.0000     -88.633936     -2411.8520
   2   2.0000     -42.071286     -1144.8179
   3   2.0000     -37.056811     -1008.3671
   4   2.0000     -37.056398     -1008.3558
   5   2.0000     -37.056398     -1008.3558
   6   2.0000      -7.838013      -213.2832
   7   2.0000      -5.778823      -157.2498
   8   2.0000      -5.772472      -157.0769
   9   2.0000      -5.772472      -157.0769
  10   2.0000      -4.860232      -132.2536
  11   2.0000      -3.227322       -87.8199
  12   2.0000      -3.223795       -87.7239
  13   2.0000      -3.223795       -87.7239
  14   2.0000      -0.622561       -16.9408
  15   2.0000      -0.481851       -13.1118
  16   2.0000      -0.481851       -13.1118
  17   2.0000      -0.477740       -13.0000
  18   2.0000      -0.474783       -12.9195
  19   2.0000      -0.474768       -12.9191
  20   2.0000      -0.305877        -8.3233
  21   2.0000      -0.211550        -5.7566
  22   2.0000      -0.211550        -5.7566
  23   0.0000      -0.180648        -4.9157
  24   0.0000      -0.040705        -1.1076
  25   0.0000      -0.040705        -1.1076
  26   0.0000       0.009124         0.2483
  27   0.0000       0.021044         0.5726

MULLIKEN ATOMIC CHARGES
-----------------------
   0 Zn:    0.492034
   1 S :   -0.492034
Sum of atomic charges:    0.0000000

LOEWDIN ATOMIC CHARGES
----------------------
   0 Zn:    0.296028
   1 S :   -0.296028

  Mayer bond orders larger than 0.100000
B(  0-Zn,  1-S ) :   1.7680

Dispersion correction           -0.000203357
FINAL SINGLE POINT ENERGY     -2177.890001447811

DIPOLE MOMENT
-------------
                                X             Y             Z
Electronic contribution:     -0.00000      -0.00000      -5.39517
Nuclear contribution   :      0.00000       0.00000       3.35914
                        -----------------------------------------
Total Dipole Moment    :     -0.00000      -0.00000      -2.03603
                        -----------------------------------------
Magnitude (a.u.)       :      2.03603
Magnitude (Debye)      :      5.17518

Rotational constants in cm-1:     0.000000     0.185542     0.185542
Rotational constants in MHz :     0.000000  5562.415993  5562.415993

                             ****ORCA TERMINATED NORMALLY****
TOTAL RUN TIME: 0 days 0 hours 0 minutes 6 seconds 954 msec
