                         Program Version 4.2.0 -  RELEASE  -
|  1> #
|  2> # 63_V scanfunc/aug-cc-pvtz
|  3> #
|  4> ! scanfunc d3bj aug-cc-pvtz def2/j grid4 nofinalgrid
|  5>
|  6> *xyz 0 4
|  7> V 0.0 0.0 0.0
|  8> *
|  9>
| 10> %pal
| 11> nprocs 24
| 12> end
| 13>
| 14>
| 15>                          ****END OF INPUT****

CARTESIAN COORDINATES (ANGSTROEM)
---------------------------------
  V      0.000000    0.000000    0.000000

 Total Charge           Charge          ....    0
 Multiplicity           Mult            ....    4
 Number of Electrons    NEL             ....   23
 Basis Dimension        Dim             ....   93

ORBITAL ENERGIES
----------------
                 SPIN UP ORBITALS
  NO   OCC          E(Eh)            E(eV)
   0   1.0000    -196.434089     -5345.2433
   1   1.0000     -22.067975      -600.5001
   2   1.0000     -18.579797      -505.5820
   3   1.0000     -18.579623      -505.5772
   4   1.0000     -18.577642      -505.5233
   5   1.0000      -2.615383       -71.1682
   6   1.0000      -1.653066       -44.9822
   7   1.0000      -1.650042       -44.8999
   8   1.0000      -1.643411       -44.7195
   9   1.0000      -0.222056        -6.0424
  10   1.0000      -0.217128        -5.9084
  11   1.0000      -0.216169        -5.8823
  12   1.0000      -0.178409        -4.8548
  13   0.0000      -0.138674        -3.7735
  14   0.0000      -0.114077        -3.1042
  15   0.0000      -0.054382        -1.4798
  16   0.0000      -0.054025        -1.4701
  17   0.0000      -0.032653        -0.8885

                 SPIN DOWN ORBITALS
  NO   OCC          E(Eh)            E(eV)
   0   1.0000    -196.435604     -5345.2845
   1   1.0000     -22.031081      -599.4962
   2   1.0000     -18.554895      -504.9044
   3   1.0000     -18.548984      -504.7435
   4   1.0000     -18.548475      -504.7297
   5   1.0000      -2.489426       -67.7407
   6   1.0000      -1.531806       -41.6826
   7   1.0000      -1.530427       -41.6450
   8   1.0000      -1.518261       -41.3140
   9   1.0000      -0.147646        -4.0177
  10   0.0000      -0.099994        -2.7210
  11   0.0000      -0.094650        -2.5755
  12   0.0000      -0.056127        -1.5273
  13   0.0000      -0.055540        -1.5113
  14   0.0000      -0.054121        -1.4727

MULLIKEN ATOMIC CHARGES AND SPIN POPULATIONS
--------------------------------------------
   0 V :   -0.000000    3.000000
Sum of atomic charges         :   -0.0000000

LOEWDIN ATOMIC CHARGES AND SPIN POPULATIONS
-------------------------------------------
   0 V :   -0.000000    3.000000

Dispersion correction            0.000000000
FINAL SINGLE POINT ENERGY      -943.979322892428

DIPOLE MOMENT
-------------
                                X             Y             Z
Electronic contribution:      0.00001       0.00001       0.00001
Nuclear contribution   :      0.00000       0.00000       0.00000
                        -----------------------------------------
Total Dipole Moment    :      0.00001       0.00001       0.00001
                        -----------------------------------------
Magnitude (a.u.)       :      0.00001
Magnitude (Debye)      :      0.00003

Rotational constants in cm-1:     0.000000     0.000000     0.000000
Rotational constants in MHz :     0.000000     0.000000     0.000000

                             ****ORCA TERMINATED NORMALLY****
TOTAL RUN TIME: 0 days 0 hours 0 minutes 11 seconds 327 msec
