                         Program Version 4.2.0 -  RELEASE  -
|  1> #
|  2> # 66_Fe scanfunc/aug-cc-pvtz
|  3> #
|  4> ! scanfunc d3bj aug-cc-pvtz def2/j grid4 nofinalgrid
|  5>
|  6> *xyz 0 5
|  7> Fe 0.0 0.0 0.0
|  8> *
|  9>
| 10> %pal
| 11> nprocs 24
| 12> end
| 13>
| 14>
| 15>                          ****END OF INPUT****

CARTESIAN COORDINATES (ANGSTROEM)
---------------------------------
  Fe     0.000000    0.000000    0.000000

 Total Charge           Charge          ....    0
 Multiplicity           Mult            ....    5
 Number of Electrons    NEL             ....   26
 Basis Dimension        Dim             ....   93

ORBITAL ENERGIES
----------------
                 SPIN UP ORBITALS
  NO   OCC          E(Eh)            E(eV)
   0   1.0000    -255.548715     -6953.8341
   1   1.0000     -29.849269      -812.2399
   2   1.0000     -25.677691      -698.7255
   3   1.0000     -25.667671      -698.4528
   4   1.0000     -25.667391      -698.4452
   5   1.0000      -3.444147       -93.7200
   6   1.0000      -2.229227       -60.6603
   7   1.0000      -2.203490       -59.9600
   8   1.0000      -2.202774       -59.9405
   9   1.0000      -0.271848        -7.3974
  10   1.0000      -0.271673        -7.3926
  11   1.0000      -0.259778        -7.0689
  12   1.0000      -0.253423        -6.8960
  13   1.0000      -0.215833        -5.8731
  14   1.0000      -0.189895        -5.1673
  15   0.0000      -0.051565        -1.4032
  16   0.0000      -0.036502        -0.9933
  17   0.0000      -0.036389        -0.9902
  18   0.0000       0.023130         0.6294
  19   0.0000       0.042441         1.1549

                 SPIN DOWN ORBITALS
  NO   OCC          E(Eh)            E(eV)
   0   1.0000    -255.541601     -6953.6405
   1   1.0000     -29.826261      -811.6138
   2   1.0000     -25.637256      -697.6252
   3   1.0000     -25.637103      -697.6210
   4   1.0000     -25.636470      -697.6038
   5   1.0000      -3.260368       -88.7191
   6   1.0000      -2.046742       -55.6947
   7   1.0000      -2.024044       -55.0770
   8   1.0000      -2.023544       -55.0634
   9   1.0000      -0.163447        -4.4476
  10   1.0000      -0.150074        -4.0837
  11   0.0000      -0.110471        -3.0061
  12   0.0000      -0.067851        -1.8463
  13   0.0000      -0.066322        -1.8047
  14   0.0000      -0.040279        -1.0961
  15   0.0000      -0.011275        -0.3068

MULLIKEN ATOMIC CHARGES AND SPIN POPULATIONS
--------------------------------------------
   0 Fe:    0.000000    4.000000
Sum of atomic charges         :    0.0000000

LOEWDIN ATOMIC CHARGES AND SPIN POPULATIONS
-------------------------------------------
   0 Fe:    0.000000    4.000000

Dispersion correction            0.000000000
FINAL SINGLE POINT ENERGY     -1263.776284564302

DIPOLE MOMENT
-------------
                                X             Y             Z
Electronic contribution:     -0.00000      -0.00000      -0.00000
Nuclear contribution   :      0.00000       0.00000       0.00000
                        -----------------------------------------
Total Dipole Moment    :     -0.00000      -0.00000      -0.00000
                        -----------------------------------------
Magnitude (a.u.)       :      0.00000
Magnitude (Debye)      :      0.00000

Rotational constants in cm-1:     0.000000     0.000000     0.000000
Rotational constants in MHz :     0.000000     0.000000     0.000000

                             ****ORCA TERMINATED NORMALLY****
TOTAL RUN TIME: 0 days 0 hours 0 minutes 15 seconds 925 msec
