                         Program Version 4.2.0 -  RELEASE  -
|  1> #
|  2> # 68_Ni scanfunc/aug-cc-pvtz
|  3> #
|  4> ! scanfunc d3bj aug-cc-pvtz def2/j grid4 nofinalgrid
|  5>
|  6> *xyz 0 3
|  7> Ni 0.0 0.0 0.0
|  8> *
|  9>
| 10> %pal
| 11> nprocs 24
| 12> end
| 13>
| 14>
| 15>                          ****END OF INPUT****

CARTESIAN COORDINATES (ANGSTROEM)
---------------------------------
  Ni     0.000000    0.000000    0.000000

 Total Charge           Charge          ....    0
 Multiplicity           Mult            ....    3
 Number of Electrons    NEL             ....   28
 Basis Dimension        Dim             ....   93

ORBITAL ENERGIES
----------------
                 SPIN UP ORBITALS
  NO   OCC          E(Eh)            E(eV)
   0   1.0000    -299.202496     -8141.7138
   1   1.0000     -35.524696      -966.6761
   2   1.0000     -30.927477      -841.5794
   3   1.0000     -30.896236      -840.7293
   4   1.0000     -30.894505      -840.6822
   5   1.0000      -3.921283      -106.7035
   6   1.0000      -2.547056       -69.3089
   7   1.0000      -2.478700       -67.4489
   8   1.0000      -2.473470       -67.3065
   9   1.0000      -0.250850        -6.8260
  10   1.0000      -0.195011        -5.3065
  11   1.0000      -0.193006        -5.2520
  12   1.0000      -0.184380        -5.0172
  13   1.0000      -0.172921        -4.7054
  14   1.0000      -0.172863        -4.7038
  15   0.0000      -0.035275        -0.9599
  16   0.0000      -0.029779        -0.8103
  17   0.0000      -0.027574        -0.7503
  18   0.0000       0.036005         0.9798
  19   0.0000       0.059022         1.6061

                 SPIN DOWN ORBITALS
  NO   OCC          E(Eh)            E(eV)
   0   1.0000    -299.198580     -8141.6073
   1   1.0000     -35.524101      -966.6599
   2   1.0000     -30.910795      -841.1255
   3   1.0000     -30.892516      -840.6281
   4   1.0000     -30.889768      -840.5533
   5   1.0000      -3.871942      -105.3609
   6   1.0000      -2.453455       -66.7619
   7   1.0000      -2.449505       -66.6544
   8   1.0000      -2.447466       -66.5989
   9   1.0000      -0.192469        -5.2373
  10   1.0000      -0.186216        -5.0672
  11   1.0000      -0.131555        -3.5798
  12   1.0000      -0.131044        -3.5659
  13   0.0000      -0.114300        -3.1103
  14   0.0000      -0.079155        -2.1539
  15   0.0000      -0.000513        -0.0140
  16   0.0000       0.001366         0.0372
  17   0.0000       0.001417         0.0386

MULLIKEN ATOMIC CHARGES AND SPIN POPULATIONS
--------------------------------------------
   0 Ni:    0.000000    2.000000
Sum of atomic charges         :    0.0000000

LOEWDIN ATOMIC CHARGES AND SPIN POPULATIONS
-------------------------------------------
   0 Ni:    0.000000    2.000000

Dispersion correction            0.000000000
FINAL SINGLE POINT ENERGY     -1508.405094501225

DIPOLE MOMENT
-------------
                                X             Y             Z
Electronic contribution:     -0.00000      -0.00000       0.00000
Nuclear contribution   :      0.00000       0.00000       0.00000
                        -----------------------------------------
Total Dipole Moment    :     -0.00000      -0.00000       0.00000
                        -----------------------------------------
Magnitude (a.u.)       :      0.00000
Magnitude (Debye)      :      0.00000

Rotational constants in cm-1:     0.000000     0.000000     0.000000
Rotational constants in MHz :     0.000000     0.000000     0.000000

                             ****ORCA TERMINATED NORMALLY****
TOTAL RUN TIME: 0 days 0 hours 0 minutes 7 seconds 115 msec
