                         Program Version 4.2.0 -  RELEASE  -
|  1> #
|  2> # 69_Cu scanfunc/aug-cc-pvtz
|  3> #
|  4> ! scanfunc d3bj aug-cc-pvtz def2/j grid4 nofinalgrid
|  5>
|  6> *xyz 0 2
|  7> Cu 0.0 0.0 0.0
|  8> *
|  9>
| 10> %pal
| 11> nprocs 24
| 12> end
| 13>
| 14>
| 15>                          ****END OF INPUT****

CARTESIAN COORDINATES (ANGSTROEM)
---------------------------------
  Cu     0.000000    0.000000    0.000000

 Total Charge           Charge          ....    0
 Multiplicity           Mult            ....    2
 Number of Electrons    NEL             ....   29
 Basis Dimension        Dim             ....   93

ORBITAL ENERGIES
----------------
                 SPIN UP ORBITALS
  NO   OCC          E(Eh)            E(eV)
   0   1.0000    -322.457643     -8774.5186
   1   1.0000     -38.499655     -1047.6289
   2   1.0000     -33.722626      -917.6393
   3   1.0000     -33.722621      -917.6392
   4   1.0000     -33.722620      -917.6391
   5   1.0000      -4.225473      -114.9810
   6   1.0000      -2.702954       -73.5511
   7   1.0000      -2.702923       -73.5503
   8   1.0000      -2.702912       -73.5500
   9   1.0000      -0.193688        -5.2705
  10   1.0000      -0.193681        -5.2703
  11   1.0000      -0.193679        -5.2703
  12   1.0000      -0.193679        -5.2703
  13   1.0000      -0.193659        -5.2697
  14   1.0000      -0.187076        -5.0906
  15   0.0000      -0.027843        -0.7577
  16   0.0000      -0.027839        -0.7575
  17   0.0000      -0.027827        -0.7572
  18   0.0000       0.039977         1.0878
  19   0.0000       0.061235         1.6663

                 SPIN DOWN ORBITALS
  NO   OCC          E(Eh)            E(eV)
   0   1.0000    -322.455194     -8774.4519
   1   1.0000     -38.504228     -1047.7533
   2   1.0000     -33.724562      -917.6920
   3   1.0000     -33.724561      -917.6920
   4   1.0000     -33.724559      -917.6919
   5   1.0000      -4.229939      -115.1025
   6   1.0000      -2.706986       -73.6608
   7   1.0000      -2.706970       -73.6604
   8   1.0000      -2.706921       -73.6591
   9   1.0000      -0.187732        -5.1084
  10   1.0000      -0.187712        -5.1079
  11   1.0000      -0.187706        -5.1077
  12   1.0000      -0.187705        -5.1077
  13   1.0000      -0.187701        -5.1076
  14   0.0000      -0.123026        -3.3477
  15   0.0000       0.000396         0.0108
  16   0.0000       0.000407         0.0111
  17   0.0000       0.000410         0.0112
  18   0.0000       0.018486         0.5030

MULLIKEN ATOMIC CHARGES AND SPIN POPULATIONS
--------------------------------------------
   0 Cu:   -0.000000    1.000000
Sum of atomic charges         :   -0.0000000

LOEWDIN ATOMIC CHARGES AND SPIN POPULATIONS
-------------------------------------------
   0 Cu:    0.000000    1.000000

Dispersion correction            0.000000000
FINAL SINGLE POINT ENERGY     -1640.647947419617

DIPOLE MOMENT
-------------
                                X             Y             Z
Electronic contribution:     -0.00000       0.00000      -0.00000
Nuclear contribution   :      0.00000       0.00000       0.00000
                        -----------------------------------------
Total Dipole Moment    :     -0.00000       0.00000      -0.00000
                        -----------------------------------------
Magnitude (a.u.)       :      0.00000
Magnitude (Debye)      :      0.00001

Rotational constants in cm-1:     0.000000     0.000000     0.000000
Rotational constants in MHz :     0.000000     0.000000     0.000000

                             ****ORCA TERMINATED NORMALLY****
TOTAL RUN TIME: 0 days 0 hours 0 minutes 5 seconds 991 msec
