                         Program Version 4.2.0 -  RELEASE  -
|  1> #
|  2> # 72_F scanfunc/aug-cc-pvtz
|  3> #
|  4> ! scanfunc d3bj aug-cc-pvtz def2/j grid4 nofinalgrid
|  5>
|  6> *xyz 0 2
|  7> F 0.0 0.0 0.0
|  8> *
|  9>
| 10> %pal
| 11> nprocs 24
| 12> end
| 13>
| 14>
| 15>                          ****END OF INPUT****

CARTESIAN COORDINATES (ANGSTROEM)
---------------------------------
  F      0.000000    0.000000    0.000000

 Total Charge           Charge          ....    0
 Multiplicity           Mult            ....    2
 Number of Electrons    NEL             ....    9
 Basis Dimension        Dim             ....   46

ORBITAL ENERGIES
----------------
                 SPIN UP ORBITALS
  NO   OCC          E(Eh)            E(eV)
   0   1.0000     -24.608486      -669.6309
   1   1.0000      -1.198773       -32.6203
   2   1.0000      -0.529920       -14.4199
   3   1.0000      -0.427623       -11.6362
   4   1.0000      -0.427603       -11.6357
   5   0.0000       0.114472         3.1149
   6   0.0000       0.143218         3.8972
   7   0.0000       0.152211         4.1419
   8   0.0000       0.152213         4.1419
   9   0.0000       0.717998        19.5377

                 SPIN DOWN ORBITALS
  NO   OCC          E(Eh)            E(eV)
   0   1.0000     -24.562444      -668.3781
   1   1.0000      -1.085401       -29.5353
   2   1.0000      -0.397312       -10.8114
   3   1.0000      -0.397302       -10.8111
   4   0.0000      -0.297450        -8.0940
   5   0.0000       0.131371         3.5748
   6   0.0000       0.161092         4.3835
   7   0.0000       0.165828         4.5124
   8   0.0000       0.165831         4.5125

MULLIKEN ATOMIC CHARGES AND SPIN POPULATIONS
--------------------------------------------
   0 F :   -0.000000    1.000000
Sum of atomic charges         :   -0.0000000

LOEWDIN ATOMIC CHARGES AND SPIN POPULATIONS
-------------------------------------------
   0 F :    0.000000    1.000000

Dispersion correction            0.000000000
FINAL SINGLE POINT ENERGY       -99.743441185031

DIPOLE MOMENT
-------------
                                X             Y             Z
Electronic contribution:     -0.00000       0.00000      -0.00000
Nuclear contribution   :      0.00000       0.00000       0.00000
                        -----------------------------------------
Total Dipole Moment    :     -0.00000       0.00000      -0.00000
                        -----------------------------------------
Magnitude (a.u.)       :      0.00000
Magnitude (Debye)      :      0.00000

Rotational constants in cm-1:     0.000000     0.000000     0.000000
Rotational constants in MHz :     0.000000     0.000000     0.000000

                             ****ORCA TERMINATED NORMALLY****
TOTAL RUN TIME: 0 days 0 hours 0 minutes 2 seconds 689 msec
