                         Program Version 4.2.0 -  RELEASE  -
|  1> #
|  2> # 73_Cl scanfunc/aug-cc-pvtz
|  3> #
|  4> ! scanfunc d3bj aug-cc-pvtz def2/j grid4 nofinalgrid
|  5>
|  6> *xyz 0 2
|  7> Cl 0.0 0.0 0.0
|  8> *
|  9>
| 10> %pal
| 11> nprocs 24
| 12> end
| 13>
| 14>
| 15>                          ****END OF INPUT****

CARTESIAN COORDINATES (ANGSTROEM)
---------------------------------
  Cl     0.000000    0.000000    0.000000

 Total Charge           Charge          ....    0
 Multiplicity           Mult            ....    2
 Number of Electrons    NEL             ....   17
 Basis Dimension        Dim             ....   50

ORBITAL ENERGIES
----------------
                 SPIN UP ORBITALS
  NO   OCC          E(Eh)            E(eV)
   0   1.0000    -101.334278     -2757.4459
   1   1.0000      -9.374258      -255.0865
   2   1.0000      -7.153416      -194.6544
   3   1.0000      -7.130690      -194.0359
   4   1.0000      -7.130622      -194.0341
   5   1.0000      -0.821050       -22.3419
   6   1.0000      -0.392294       -10.6749
   7   1.0000      -0.330027        -8.9805
   8   1.0000      -0.329978        -8.9791
   9   0.0000       0.058063         1.5800
  10   0.0000       0.077743         2.1155
  11   0.0000       0.084522         2.3000
  12   0.0000       0.084541         2.3005
  13   0.0000       0.200834         5.4650

                 SPIN DOWN ORBITALS
  NO   OCC          E(Eh)            E(eV)
   0   1.0000    -101.326230     -2757.2269
   1   1.0000      -9.384232      -255.3579
   2   1.0000      -7.134302      -194.1342
   3   1.0000      -7.134214      -194.1318
   4   1.0000      -7.128560      -193.9780
   5   1.0000      -0.743169       -20.2226
   6   1.0000      -0.310184        -8.4405
   7   1.0000      -0.309324        -8.4171
   8   0.0000      -0.257354        -7.0030
   9   0.0000       0.070808         1.9268
  10   0.0000       0.087188         2.3725
  11   0.0000       0.096535         2.6269
  12   0.0000       0.096632         2.6295

MULLIKEN ATOMIC CHARGES AND SPIN POPULATIONS
--------------------------------------------
   0 Cl:   -0.000000    1.000000
Sum of atomic charges         :   -0.0000000

LOEWDIN ATOMIC CHARGES AND SPIN POPULATIONS
-------------------------------------------
   0 Cl:   -0.000000    1.000000

Dispersion correction            0.000000000
FINAL SINGLE POINT ENERGY      -460.156679908911

DIPOLE MOMENT
-------------
                                X             Y             Z
Electronic contribution:      0.00000      -0.00000      -0.00000
Nuclear contribution   :      0.00000       0.00000       0.00000
                        -----------------------------------------
Total Dipole Moment    :      0.00000      -0.00000      -0.00000
                        -----------------------------------------
Magnitude (a.u.)       :      0.00000
Magnitude (Debye)      :      0.00000

Rotational constants in cm-1:     0.000000     0.000000     0.000000
Rotational constants in MHz :     0.000000     0.000000     0.000000

                             ****ORCA TERMINATED NORMALLY****
TOTAL RUN TIME: 0 days 0 hours 0 minutes 2 seconds 512 msec
