                         Program Version 4.2.0 -  RELEASE  -
|  1> #
|  2> # 74_Br scanfunc/aug-cc-pvtz
|  3> #
|  4> ! scanfunc d3bj aug-cc-pvtz def2/j grid4 nofinalgrid
|  5>
|  6> *xyz 0 2
|  7> Br 0.0 0.0 0.0
|  8> *
|  9>
| 10> %pal
| 11> nprocs 24
| 12> end
| 13>
| 14>
| 15>                          ****END OF INPUT****

CARTESIAN COORDINATES (ANGSTROEM)
---------------------------------
  Br     0.000000    0.000000    0.000000

 Total Charge           Charge          ....    0
 Multiplicity           Mult            ....    2
 Number of Electrons    NEL             ....   35
 Basis Dimension        Dim             ....   59

ORBITAL ENERGIES
----------------
                 SPIN UP ORBITALS
  NO   OCC          E(Eh)            E(eV)
   0   1.0000    -482.310344    -13124.3317
   1   1.0000     -62.352424     -1696.6957
   2   1.0000     -56.157599     -1528.1260
   3   1.0000     -56.151387     -1527.9569
   4   1.0000     -56.151386     -1527.9569
   5   1.0000      -8.697837      -236.6802
   6   1.0000      -6.498182      -176.8245
   7   1.0000      -6.476121      -176.2242
   8   1.0000      -6.476120      -176.2242
   9   1.0000      -2.573913       -70.0397
  10   1.0000      -2.568495       -69.8923
  11   1.0000      -2.568494       -69.8923
  12   1.0000      -2.551823       -69.4386
  13   1.0000      -2.551822       -69.4386
  14   1.0000      -0.765941       -20.8423
  15   1.0000      -0.356931        -9.7126
  16   1.0000      -0.299651        -8.1539
  17   1.0000      -0.299648        -8.1538
  18   0.0000       0.034821         0.9475
  19   0.0000       0.064221         1.7475
  20   0.0000       0.070219         1.9108
  21   0.0000       0.070220         1.9108
  22   0.0000       0.154305         4.1988

                 SPIN DOWN ORBITALS
  NO   OCC          E(Eh)            E(eV)
   0   1.0000    -482.307809    -13124.2627
   1   1.0000     -62.345929     -1696.5190
   2   1.0000     -56.150777     -1527.9403
   3   1.0000     -56.150777     -1527.9403
   4   1.0000     -56.140504     -1527.6608
   5   1.0000      -8.693868      -236.5722
   6   1.0000      -6.491023      -176.6297
   7   1.0000      -6.473793      -176.1609
   8   1.0000      -6.473791      -176.1608
   9   1.0000      -2.567258       -69.8586
  10   1.0000      -2.561702       -69.7074
  11   1.0000      -2.561697       -69.7073
  12   1.0000      -2.550786       -69.4104
  13   1.0000      -2.550783       -69.4103
  14   1.0000      -0.715202       -19.4616
  15   1.0000      -0.287426        -7.8213
  16   1.0000      -0.287387        -7.8202
  17   0.0000      -0.252879        -6.8812
  18   0.0000       0.044118         1.2005
  19   0.0000       0.070112         1.9078
  20   0.0000       0.080739         2.1970
  21   0.0000       0.080752         2.1974

MULLIKEN ATOMIC CHARGES AND SPIN POPULATIONS
--------------------------------------------
   0 Br:    0.000000    1.000000
Sum of atomic charges         :    0.0000000

LOEWDIN ATOMIC CHARGES AND SPIN POPULATIONS
-------------------------------------------
   0 Br:    0.000000    1.000000

Dispersion correction            0.000000000
FINAL SINGLE POINT ENERGY     -2574.466053381453

DIPOLE MOMENT
-------------
                                X             Y             Z
Electronic contribution:     -0.00000       0.00000       0.00000
Nuclear contribution   :      0.00000       0.00000       0.00000
                        -----------------------------------------
Total Dipole Moment    :     -0.00000       0.00000       0.00000
                        -----------------------------------------
Magnitude (a.u.)       :      0.00000
Magnitude (Debye)      :      0.00000

Rotational constants in cm-1:     0.000000     0.000000     0.000000
Rotational constants in MHz :     0.000000     0.000000     0.000000

                             ****ORCA TERMINATED NORMALLY****
TOTAL RUN TIME: 0 days 0 hours 0 minutes 2 seconds 873 msec
