                         Program Version 4.2.0 -  RELEASE  -
|  1> #
|  2> # 76_S scanfunc/aug-cc-pvtz
|  3> #
|  4> ! scanfunc d3bj aug-cc-pvtz def2/j grid4 nofinalgrid
|  5>
|  6> *xyz 0 3
|  7> S 0.0 0.0 0.0
|  8> *
|  9>
| 10> %pal
| 11> nprocs 24
| 12> end
| 13>
| 14>
| 15>                          ****END OF INPUT****

CARTESIAN COORDINATES (ANGSTROEM)
---------------------------------
  S      0.000000    0.000000    0.000000

 Total Charge           Charge          ....    0
 Multiplicity           Mult            ....    3
 Number of Electrons    NEL             ....   16
 Basis Dimension        Dim             ....   50

ORBITAL ENERGIES
----------------
                 SPIN UP ORBITALS
  NO   OCC          E(Eh)            E(eV)
   0   1.0000     -88.731554     -2414.5083
   1   1.0000      -7.934391      -215.9058
   2   1.0000      -5.879245      -159.9824
   3   1.0000      -5.879245      -159.9824
   4   1.0000      -5.858335      -159.4134
   5   1.0000      -0.682967       -18.5845
   6   1.0000      -0.311139        -8.4665
   7   1.0000      -0.311139        -8.4665
   8   1.0000      -0.262869        -7.1530
   9   0.0000       0.041711         1.1350
  10   0.0000       0.065249         1.7755
  11   0.0000       0.065249         1.7755
  12   0.0000       0.070143         1.9087
  13   0.0000       0.140459         3.8221

                 SPIN DOWN ORBITALS
  NO   OCC          E(Eh)            E(eV)
   0   1.0000     -88.717866     -2414.1359
   1   1.0000      -7.909732      -215.2348
   2   1.0000      -5.849916      -159.1843
   3   1.0000      -5.849072      -159.1613
   4   1.0000      -5.849072      -159.1613
   5   1.0000      -0.598062       -16.2741
   6   1.0000      -0.242425        -6.5967
   7   0.0000      -0.200486        -5.4555
   8   0.0000      -0.200485        -5.4555
   9   0.0000       0.074301         2.0218
  10   0.0000       0.118398         3.2218
  11   0.0000       0.118420         3.2224

MULLIKEN ATOMIC CHARGES AND SPIN POPULATIONS
--------------------------------------------
   0 S :    0.000000    2.000000
Sum of atomic charges         :    0.0000000

LOEWDIN ATOMIC CHARGES AND SPIN POPULATIONS
-------------------------------------------
   0 S :    0.000000    2.000000

Dispersion correction            0.000000000
FINAL SINGLE POINT ENERGY      -398.172915758273

DIPOLE MOMENT
-------------
                                X             Y             Z
Electronic contribution:      0.00000      -0.00000       0.00000
Nuclear contribution   :      0.00000       0.00000       0.00000
                        -----------------------------------------
Total Dipole Moment    :      0.00000      -0.00000       0.00000
                        -----------------------------------------
Magnitude (a.u.)       :      0.00000
Magnitude (Debye)      :      0.00000

Rotational constants in cm-1:     0.000000     0.000000     0.000000
Rotational constants in MHz :     0.000000     0.000000     0.000000

                             ****ORCA TERMINATED NORMALLY****
TOTAL RUN TIME: 0 days 0 hours 0 minutes 2 seconds 560 msec
