                         Program Version 4.2.0 -  RELEASE  -
|  1> #
|  2> # 03_ScCl tpss/aug-cc-pvtz
|  3> #
|  4> ! tpss d3bj aug-cc-pvtz def2/j grid4 nofinalgrid
|  5>
|  6> *xyz 0 1
|  7>   Sc  0.00000000000000      0.00000000000000     -0.11786902866458
|  8>   Cl  0.00000000000000      0.00000000000000      2.11786902866458
|  9> *
| 10>
| 11> %pal
| 12> nprocs 24
| 13> end
| 14>
| 15>
| 16>                          ****END OF INPUT****

CARTESIAN COORDINATES (ANGSTROEM)
---------------------------------
  Sc     0.000000    0.000000   -0.117869
  Cl     0.000000    0.000000    2.117869

 Total Charge           Charge          ....    0
 Multiplicity           Mult            ....    1
 Number of Electrons    NEL             ....   38
 Basis Dimension        Dim             ....  143

ORBITAL ENERGIES
----------------

  NO   OCC          E(Eh)            E(eV)
   0   2.0000    -161.086706     -4383.3921
   1   2.0000    -101.011207     -2748.6547
   2   2.0000     -17.379227      -472.9128
   3   2.0000     -14.323341      -389.7579
   4   2.0000     -14.323341      -389.7579
   5   2.0000     -14.308579      -389.3562
   6   2.0000      -9.236909      -251.3491
   7   2.0000      -7.011508      -190.7928
   8   2.0000      -7.010264      -190.7590
   9   2.0000      -7.010264      -190.7590
  10   2.0000      -2.055520       -55.9335
  11   2.0000      -1.278272       -34.7836
  12   2.0000      -1.278272       -34.7836
  13   2.0000      -1.262811       -34.3628
  14   2.0000      -0.737471       -20.0676
  15   2.0000      -0.325354        -8.8533
  16   2.0000      -0.299123        -8.1395
  17   2.0000      -0.299123        -8.1395
  18   2.0000      -0.153647        -4.1809
  19   0.0000      -0.145139        -3.9494
  20   0.0000      -0.145135        -3.9493
  21   0.0000      -0.120725        -3.2851
  22   0.0000      -0.120725        -3.2851
  23   0.0000      -0.101634        -2.7656

MULLIKEN ATOMIC CHARGES
-----------------------
   0 Sc:    0.338795
   1 Cl:   -0.338795
Sum of atomic charges:   -0.0000000

LOEWDIN ATOMIC CHARGES
----------------------
   0 Sc:   -0.162720
   1 Cl:    0.162720

  Mayer bond orders larger than 0.100000
B(  0-Sc,  1-Cl) :   1.3910

Dispersion correction           -0.001742506
FINAL SINGLE POINT ENERGY     -1220.992051605882

DIPOLE MOMENT
-------------
                                X             Y             Z
Electronic contribution:      0.00000      -0.00000      -2.10086
Nuclear contribution   :      0.00000       0.00000       1.04067
                        -----------------------------------------
Total Dipole Moment    :      0.00000      -0.00000      -1.06019
                        -----------------------------------------
Magnitude (a.u.)       :      1.06019
Magnitude (Debye)      :      2.69480

Rotational constants in cm-1:     0.000000     0.170138     0.170138
Rotational constants in MHz :     0.000000  5100.617263  5100.617263

                             ****ORCA TERMINATED NORMALLY****
TOTAL RUN TIME: 0 days 0 hours 0 minutes 7 seconds 305 msec
