                         Program Version 4.2.0 -  RELEASE  -
|  1> #
|  2> # 05_ScO tpss/aug-cc-pvtz
|  3> #
|  4> ! tpss d3bj aug-cc-pvtz def2/j grid4 nofinalgrid
|  5>
|  6> *xyz 0 2
|  7>   Sc  0.00000000000000      0.00000000000000      0.16492994527036
|  8>   O   0.00000000000000      0.00000000000000      1.83507005472964
|  9> *
| 10>
| 11> %pal
| 12> nprocs 24
| 13> end
| 14>
| 15>
| 16>                          ****END OF INPUT****

CARTESIAN COORDINATES (ANGSTROEM)
---------------------------------
  Sc     0.000000    0.000000    0.164930
  O      0.000000    0.000000    1.835070

 Total Charge           Charge          ....    0
 Multiplicity           Mult            ....    2
 Number of Electrons    NEL             ....   29
 Basis Dimension        Dim             ....  139

ORBITAL ENERGIES
----------------
                 SPIN UP ORBITALS
  NO   OCC          E(Eh)            E(eV)
   0   1.0000    -161.020511     -4381.5908
   1   1.0000     -18.834718      -512.5187
   2   1.0000     -17.301924      -470.8093
   3   1.0000     -14.244705      -387.6181
   4   1.0000     -14.244705      -387.6181
   5   1.0000     -14.235068      -387.3559
   6   1.0000      -1.992424       -54.2166
   7   1.0000      -1.222841       -33.2752
   8   1.0000      -1.218361       -33.1533
   9   1.0000      -1.218361       -33.1533
  10   1.0000      -0.760775       -20.7017
  11   1.0000      -0.255083        -6.9412
  12   1.0000      -0.255083        -6.9412
  13   1.0000      -0.247119        -6.7244
  14   1.0000      -0.147358        -4.0098
  15   0.0000      -0.103491        -2.8161
  16   0.0000      -0.103490        -2.8161
  17   0.0000      -0.078221        -2.1285
  18   0.0000      -0.078221        -2.1285
  19   0.0000      -0.050993        -1.3876

                 SPIN DOWN ORBITALS
  NO   OCC          E(Eh)            E(eV)
   0   1.0000    -161.019828     -4381.5723
   1   1.0000     -18.835743      -512.5466
   2   1.0000     -17.300586      -470.7729
   3   1.0000     -14.243630      -387.5889
   4   1.0000     -14.243630      -387.5889
   5   1.0000     -14.233548      -387.3145
   6   1.0000      -1.987435       -54.0809
   7   1.0000      -1.215128       -33.0653
   8   1.0000      -1.213906       -33.0320
   9   1.0000      -1.213906       -33.0320
  10   1.0000      -0.762082       -20.7373
  11   1.0000      -0.255045        -6.9401
  12   1.0000      -0.255045        -6.9401
  13   1.0000      -0.246586        -6.7100
  14   0.0000      -0.115391        -3.1399
  15   0.0000      -0.090052        -2.4504
  16   0.0000      -0.090050        -2.4504
  17   0.0000      -0.055069        -1.4985
  18   0.0000      -0.055069        -1.4985

MULLIKEN ATOMIC CHARGES AND SPIN POPULATIONS
--------------------------------------------
   0 Sc:    0.878406    1.000185
   1 O :   -0.878406   -0.000185
Sum of atomic charges         :   -0.0000000

LOEWDIN ATOMIC CHARGES AND SPIN POPULATIONS
-------------------------------------------
   0 Sc:    0.683532    0.944123
   1 O :   -0.683532    0.055877

  Mayer bond orders larger than 0.100000
B(  0-Sc,  1-O ) :   1.9687

Dispersion correction           -0.000856895
FINAL SINGLE POINT ENERGY      -836.021614178182

DIPOLE MOMENT
-------------
                                X             Y             Z
Electronic contribution:      0.00000      -0.00000      -2.58853
Nuclear contribution   :      0.00000       0.00000       1.22710
                        -----------------------------------------
Total Dipole Moment    :      0.00000      -0.00000      -1.36143
                        -----------------------------------------
Magnitude (a.u.)       :      1.36143
Magnitude (Debye)      :      3.46047

Rotational constants in cm-1:     0.000000     0.512165     0.512165
Rotational constants in MHz :     0.000000 15354.316375 15354.316375

                             ****ORCA TERMINATED NORMALLY****
TOTAL RUN TIME: 0 days 0 hours 0 minutes 8 seconds 130 msec
