                         Program Version 4.2.0 -  RELEASE  -
|  1> #
|  2> # 06_ScS tpss/aug-cc-pvtz
|  3> #
|  4> ! tpss d3bj aug-cc-pvtz def2/j grid4 nofinalgrid
|  5>
|  6> *xyz 0 2
|  7>   Sc  0.00000000000000      0.00000000000000     -0.07079618847288
|  8>   S   0.00000000000000      0.00000000000000      2.07079618847288
|  9> *
| 10>
| 11> %pal
| 12> nprocs 24
| 13> end
| 14>
| 15>
| 16>                          ****END OF INPUT****

CARTESIAN COORDINATES (ANGSTROEM)
---------------------------------
  Sc     0.000000    0.000000   -0.070796
  S      0.000000    0.000000    2.070796

 Total Charge           Charge          ....    0
 Multiplicity           Mult            ....    2
 Number of Electrons    NEL             ....   37
 Basis Dimension        Dim             ....  143

ORBITAL ENERGIES
----------------
                 SPIN UP ORBITALS
  NO   OCC          E(Eh)            E(eV)
   0   1.0000    -161.050588     -4382.4093
   1   1.0000     -88.323811     -2403.4131
   2   1.0000     -17.333242      -471.6615
   3   1.0000     -14.275903      -388.4671
   4   1.0000     -14.275903      -388.4671
   5   1.0000     -14.266285      -388.2054
   6   1.0000      -7.682808      -209.0598
   7   1.0000      -5.660376      -154.0267
   8   1.0000      -5.660376      -154.0267
   9   1.0000      -5.658910      -153.9868
  10   1.0000      -2.019643       -54.9573
  11   1.0000      -1.244597       -33.8672
  12   1.0000      -1.244597       -33.8672
  13   1.0000      -1.232807       -33.5464
  14   1.0000      -0.562763       -15.3136
  15   1.0000      -0.228089        -6.2066
  16   1.0000      -0.214390        -5.8339
  17   1.0000      -0.214390        -5.8339
  18   1.0000      -0.156088        -4.2474
  19   0.0000      -0.126347        -3.4381
  20   0.0000      -0.126347        -3.4381
  21   0.0000      -0.101290        -2.7562
  22   0.0000      -0.101290        -2.7562
  23   0.0000      -0.089320        -2.4305

                 SPIN DOWN ORBITALS
  NO   OCC          E(Eh)            E(eV)
   0   1.0000    -161.050015     -4382.3937
   1   1.0000     -88.324057     -2403.4198
   2   1.0000     -17.330778      -471.5945
   3   1.0000     -14.274219      -388.4213
   4   1.0000     -14.274219      -388.4213
   5   1.0000     -14.263328      -388.1249
   6   1.0000      -7.683020      -209.0656
   7   1.0000      -5.660721      -154.0360
   8   1.0000      -5.660721      -154.0360
   9   1.0000      -5.659191      -153.9944
  10   1.0000      -2.010405       -54.7059
  11   1.0000      -1.237747       -33.6808
  12   1.0000      -1.237747       -33.6808
  13   1.0000      -1.216080       -33.0912
  14   1.0000      -0.563901       -15.3445
  15   1.0000      -0.225206        -6.1282
  16   1.0000      -0.214167        -5.8278
  17   1.0000      -0.214167        -5.8278
  18   0.0000      -0.127793        -3.4774
  19   0.0000      -0.110352        -3.0028
  20   0.0000      -0.110350        -3.0028
  21   0.0000      -0.089257        -2.4288
  22   0.0000      -0.089257        -2.4288

MULLIKEN ATOMIC CHARGES AND SPIN POPULATIONS
--------------------------------------------
   0 Sc:    0.300138    1.024493
   1 S :   -0.300138   -0.024493
Sum of atomic charges         :   -0.0000000

LOEWDIN ATOMIC CHARGES AND SPIN POPULATIONS
-------------------------------------------
   0 Sc:    0.083454    0.940608
   1 S :   -0.083454    0.059392

  Mayer bond orders larger than 0.100000
B(  0-Sc,  1-S ) :   2.5666

Dispersion correction           -0.001999373
FINAL SINGLE POINT ENERGY     -1158.986495569117

DIPOLE MOMENT
-------------
                                X             Y             Z
Electronic contribution:      0.00000       0.00000      -4.43435
Nuclear contribution   :      0.00000       0.00000       2.42233
                        -----------------------------------------
Total Dipole Moment    :      0.00000       0.00000      -2.01202
                        -----------------------------------------
Magnitude (a.u.)       :      2.01202
Magnitude (Debye)      :      5.11414

Rotational constants in cm-1:     0.000000     0.196398     0.196398
Rotational constants in MHz :     0.000000  5887.862686  5887.862686

                             ****ORCA TERMINATED NORMALLY****
TOTAL RUN TIME: 0 days 0 hours 0 minutes 8 seconds 850 msec
