                         Program Version 4.2.0 -  RELEASE  -
|  1> #
|  2> # 08_TiF tpss/aug-cc-pvtz
|  3> #
|  4> ! tpss d3bj aug-cc-pvtz def2/j grid4 nofinalgrid
|  5>
|  6> *xyz 0 4
|  7>   Ti  0.00000000000000      0.00000000000000      0.11041057480115
|  8>   F   0.00000000000000      0.00000000000000      1.88958942519885
|  9> *
| 10>
| 11> %pal
| 12> nprocs 24
| 13> end
| 14>
| 15>
| 16>                          ****END OF INPUT****

CARTESIAN COORDINATES (ANGSTROEM)
---------------------------------
  Ti     0.000000    0.000000    0.110411
  F      0.000000    0.000000    1.889589

 Total Charge           Charge          ....    0
 Multiplicity           Mult            ....    4
 Number of Electrons    NEL             ....   31
 Basis Dimension        Dim             ....  139

ORBITAL ENERGIES
----------------
                 SPIN UP ORBITALS
  NO   OCC          E(Eh)            E(eV)
   0   1.0000    -178.118089     -4846.8396
   1   1.0000     -24.369463      -663.1268
   2   1.0000     -19.516603      -531.0738
   3   1.0000     -16.254555      -442.3089
   4   1.0000     -16.239699      -441.9047
   5   1.0000     -16.239699      -441.9047
   6   1.0000      -2.242975       -61.0344
   7   1.0000      -1.405717       -38.2515
   8   1.0000      -1.377542       -37.4848
   9   1.0000      -1.377542       -37.4848
  10   1.0000      -1.033478       -28.1224
  11   1.0000      -0.362044        -9.8517
  12   1.0000      -0.341386        -9.2896
  13   1.0000      -0.341386        -9.2896
  14   1.0000      -0.155456        -4.2302
  15   1.0000      -0.118592        -3.2270
  16   1.0000      -0.118591        -3.2270
  17   0.0000      -0.097845        -2.6625
  18   0.0000      -0.097845        -2.6625
  19   0.0000      -0.086822        -2.3626
  20   0.0000      -0.034362        -0.9350
  21   0.0000      -0.034362        -0.9350

                 SPIN DOWN ORBITALS
  NO   OCC          E(Eh)            E(eV)
   0   1.0000    -178.117431     -4846.8217
   1   1.0000     -24.371506      -663.1824
   2   1.0000     -19.496863      -530.5366
   3   1.0000     -16.247283      -442.1111
   4   1.0000     -16.219347      -441.3509
   5   1.0000     -16.219347      -441.3509
   6   1.0000      -2.178427       -59.2780
   7   1.0000      -1.375644       -37.4332
   8   1.0000      -1.292012       -35.1574
   9   1.0000      -1.292012       -35.1574
  10   1.0000      -1.035406       -28.1748
  11   1.0000      -0.360292        -9.8041
  12   1.0000      -0.341971        -9.3055
  13   1.0000      -0.341971        -9.3055
  14   0.0000      -0.089500        -2.4354
  15   0.0000      -0.054711        -1.4887
  16   0.0000      -0.054711        -1.4887
  17   0.0000      -0.045195        -1.2298
  18   0.0000      -0.026009        -0.7077

MULLIKEN ATOMIC CHARGES AND SPIN POPULATIONS
--------------------------------------------
   0 Ti:    0.553707    3.046686
   1 F :   -0.553707   -0.046686
Sum of atomic charges         :    0.0000000

LOEWDIN ATOMIC CHARGES AND SPIN POPULATIONS
-------------------------------------------
   0 Ti:    0.231652    2.957149
   1 F :   -0.231652    0.042851

  Mayer bond orders larger than 0.100000
B(  0-Ti,  1-F ) :   0.8786

Dispersion correction           -0.000615172
FINAL SINGLE POINT ENERGY      -949.385143721140

DIPOLE MOMENT
-------------
                                X             Y             Z
Electronic contribution:      0.00000      -0.00000      -1.92748
Nuclear contribution   :      0.00000       0.00000       0.66059
                        -----------------------------------------
Total Dipole Moment    :      0.00000      -0.00000      -1.26689
                        -----------------------------------------
Magnitude (a.u.)       :      1.26689
Magnitude (Debye)      :      3.22018

Rotational constants in cm-1:     0.000000     0.391496     0.391496
Rotational constants in MHz :     0.000000 11736.757371 11736.757371

                             ****ORCA TERMINATED NORMALLY****
TOTAL RUN TIME: 0 days 0 hours 0 minutes 7 seconds 652 msec
