                         Program Version 4.2.0 -  RELEASE  -
|  1> #
|  2> # 09_TiCl tpss/aug-cc-pvtz
|  3> #
|  4> ! tpss d3bj aug-cc-pvtz def2/j grid4 nofinalgrid
|  5>
|  6> *xyz 0 4
|  7>   Ti  0.00000000000000      0.00000000000000     -0.11680209456005
|  8>   Cl  0.00000000000000      0.00000000000000      2.11680209456005
|  9> *
| 10>
| 11> %pal
| 12> nprocs 24
| 13> end
| 14>
| 15>
| 16>                          ****END OF INPUT****

CARTESIAN COORDINATES (ANGSTROEM)
---------------------------------
  Ti     0.000000    0.000000   -0.116802
  Cl     0.000000    0.000000    2.116802

 Total Charge           Charge          ....    0
 Multiplicity           Mult            ....    4
 Number of Electrons    NEL             ....   39
 Basis Dimension        Dim             ....  143

ORBITAL ENERGIES
----------------
                 SPIN UP ORBITALS
  NO   OCC          E(Eh)            E(eV)
   0   1.0000    -178.116680     -4846.8013
   1   1.0000    -100.983079     -2747.8893
   2   1.0000     -19.510025      -530.8948
   3   1.0000     -16.246491      -442.0895
   4   1.0000     -16.233921      -441.7475
   5   1.0000     -16.233921      -441.7475
   6   1.0000      -9.208863      -250.5859
   7   1.0000      -6.983272      -190.0245
   8   1.0000      -6.982142      -189.9938
   9   1.0000      -6.982142      -189.9938
  10   1.0000      -2.239847       -60.9493
  11   1.0000      -1.395769       -37.9808
  12   1.0000      -1.374785       -37.4098
  13   1.0000      -1.374785       -37.4098
  14   1.0000      -0.710764       -19.3409
  15   1.0000      -0.302587        -8.2338
  16   1.0000      -0.271760        -7.3950
  17   1.0000      -0.271760        -7.3950
  18   1.0000      -0.157651        -4.2899
  19   1.0000      -0.119044        -3.2393
  20   1.0000      -0.119042        -3.2393
  21   0.0000      -0.103256        -2.8097
  22   0.0000      -0.103256        -2.8097
  23   0.0000      -0.099884        -2.7180
  24   0.0000      -0.038818        -1.0563
  25   0.0000      -0.038818        -1.0563

                 SPIN DOWN ORBITALS
  NO   OCC          E(Eh)            E(eV)
   0   1.0000    -178.116181     -4846.7877
   1   1.0000    -100.983643     -2747.9046
   2   1.0000     -19.489100      -530.3254
   3   1.0000     -16.237342      -441.8405
   4   1.0000     -16.213139      -441.1819
   5   1.0000     -16.213139      -441.1819
   6   1.0000      -9.209317      -250.5982
   7   1.0000      -6.984111      -190.0473
   8   1.0000      -6.982763      -190.0107
   9   1.0000      -6.982763      -190.0107
  10   1.0000      -2.170794       -59.0703
  11   1.0000      -1.354565       -36.8596
  12   1.0000      -1.287860       -35.0445
  13   1.0000      -1.287860       -35.0445
  14   1.0000      -0.712948       -19.4003
  15   1.0000      -0.299191        -8.1414
  16   1.0000      -0.271414        -7.3855
  17   1.0000      -0.271414        -7.3855
  18   0.0000      -0.094864        -2.5814
  19   0.0000      -0.064822        -1.7639
  20   0.0000      -0.064822        -1.7639
  21   0.0000      -0.058954        -1.6042
  22   0.0000      -0.027716        -0.7542

MULLIKEN ATOMIC CHARGES AND SPIN POPULATIONS
--------------------------------------------
   0 Ti:    0.364394    3.029565
   1 Cl:   -0.364394   -0.029565
Sum of atomic charges         :   -0.0000000

LOEWDIN ATOMIC CHARGES AND SPIN POPULATIONS
-------------------------------------------
   0 Ti:   -0.205003    2.947693
   1 Cl:    0.205003    0.052307

  Mayer bond orders larger than 0.100000
B(  0-Ti,  1-Cl) :   1.2324

Dispersion correction           -0.001742158
FINAL SINGLE POINT ENERGY     -1309.736003696356

DIPOLE MOMENT
-------------
                                X             Y             Z
Electronic contribution:     -0.00000      -0.00000      -3.54005
Nuclear contribution   :      0.00000       0.00000       1.73863
                        -----------------------------------------
Total Dipole Moment    :     -0.00000      -0.00000      -1.80142
                        -----------------------------------------
Magnitude (a.u.)       :      1.80142
Magnitude (Debye)      :      4.57884

Rotational constants in cm-1:     0.000000     0.165851     0.165851
Rotational constants in MHz :     0.000000  4972.077671  4972.077671

                             ****ORCA TERMINATED NORMALLY****
TOTAL RUN TIME: 0 days 0 hours 0 minutes 7 seconds 792 msec
