                         Program Version 4.2.0 -  RELEASE  -
|  1> #
|  2> # 10_TiBr tpss/aug-cc-pvtz
|  3> #
|  4> ! tpss d3bj aug-cc-pvtz def2/j grid4 nofinalgrid
|  5>
|  6> *xyz 0 4
|  7>   Ti  0.00000000000000      0.00000000000000     -0.20373332414567
|  8>   Br  0.00000000000000      0.00000000000000      2.20373332414567
|  9> *
| 10>
| 11> %pal
| 12> nprocs 24
| 13> end
| 14>
| 15>
| 16>                          ****END OF INPUT****

CARTESIAN COORDINATES (ANGSTROEM)
---------------------------------
  Ti     0.000000    0.000000   -0.203733
  Br     0.000000    0.000000    2.203733

 Total Charge           Charge          ....    0
 Multiplicity           Mult            ....    4
 Number of Electrons    NEL             ....   57
 Basis Dimension        Dim             ....  152

ORBITAL ENERGIES
----------------
                 SPIN UP ORBITALS
  NO   OCC          E(Eh)            E(eV)
   0   1.0000    -481.700503    -13107.7371
   1   1.0000    -178.117176     -4846.8148
   2   1.0000     -61.918598     -1684.8907
   3   1.0000     -55.750868     -1517.0583
   4   1.0000     -55.750467     -1517.0473
   5   1.0000     -55.750467     -1517.0473
   6   1.0000     -19.508969      -530.8660
   7   1.0000     -16.245117      -442.0521
   8   1.0000     -16.233042      -441.7235
   9   1.0000     -16.233042      -441.7235
  10   1.0000      -8.444310      -229.7813
  11   1.0000      -6.281462      -170.9273
  12   1.0000      -6.280183      -170.8925
  13   1.0000      -6.280183      -170.8925
  14   1.0000      -2.450439       -66.6798
  15   1.0000      -2.449884       -66.6647
  16   1.0000      -2.449884       -66.6647
  17   1.0000      -2.448757       -66.6341
  18   1.0000      -2.448713       -66.6329
  19   1.0000      -2.239850       -60.9494
  20   1.0000      -1.395376       -37.9701
  21   1.0000      -1.374884       -37.4125
  22   1.0000      -1.374884       -37.4125
  23   1.0000      -0.671237       -18.2653
  24   1.0000      -0.283420        -7.7122
  25   1.0000      -0.250490        -6.8162
  26   1.0000      -0.250490        -6.8162
  27   1.0000      -0.158473        -4.3123
  28   1.0000      -0.119795        -3.2598
  29   1.0000      -0.119793        -3.2597
  30   0.0000      -0.104570        -2.8455
  31   0.0000      -0.104570        -2.8455
  32   0.0000      -0.103980        -2.8294
  33   0.0000      -0.041022        -1.1163
  34   0.0000      -0.041022        -1.1163

                 SPIN DOWN ORBITALS
  NO   OCC          E(Eh)            E(eV)
   0   1.0000    -481.700720    -13107.7430
   1   1.0000    -178.116718     -4846.8023
   2   1.0000     -61.918659     -1684.8924
   3   1.0000     -55.751088     -1517.0642
   4   1.0000     -55.750618     -1517.0514
   5   1.0000     -55.750618     -1517.0514
   6   1.0000     -19.487666      -530.2864
   7   1.0000     -16.235394      -441.7875
   8   1.0000     -16.212106      -441.1538
   9   1.0000     -16.212106      -441.1538
  10   1.0000      -8.444586      -229.7889
  11   1.0000      -6.281839      -170.9375
  12   1.0000      -6.280464      -170.9001
  13   1.0000      -6.280464      -170.9001
  14   1.0000      -2.450879       -66.6918
  15   1.0000      -2.450309       -66.6763
  16   1.0000      -2.450309       -66.6763
  17   1.0000      -2.449102       -66.6435
  18   1.0000      -2.449058       -66.6423
  19   1.0000      -2.169418       -59.0329
  20   1.0000      -1.351328       -36.7715
  21   1.0000      -1.287345       -35.0304
  22   1.0000      -1.287345       -35.0304
  23   1.0000      -0.673345       -18.3226
  24   1.0000      -0.279606        -7.6085
  25   1.0000      -0.250177        -6.8077
  26   1.0000      -0.250177        -6.8077
  27   0.0000      -0.097979        -2.6662
  28   0.0000      -0.067218        -1.8291
  29   0.0000      -0.067218        -1.8291
  30   0.0000      -0.061394        -1.6706
  31   0.0000      -0.028909        -0.7866

MULLIKEN ATOMIC CHARGES AND SPIN POPULATIONS
--------------------------------------------
   0 Ti:    0.325104    3.033331
   1 Br:   -0.325104   -0.033331
Sum of atomic charges         :   -0.0000000

LOEWDIN ATOMIC CHARGES AND SPIN POPULATIONS
-------------------------------------------
   0 Ti:   -0.292470    2.954669
   1 Br:    0.292470    0.045331

  Mayer bond orders larger than 0.100000
B(  0-Ti,  1-Br) :   1.3117

Dispersion correction           -0.001950707
FINAL SINGLE POINT ENERGY     -3423.604461832545

DIPOLE MOMENT
-------------
                                X             Y             Z
Electronic contribution:      0.00000       0.00000       0.97363
Nuclear contribution   :      0.00000       0.00000      -2.89414
                        -----------------------------------------
Total Dipole Moment    :      0.00000       0.00000      -1.92051
                        -----------------------------------------
Magnitude (a.u.)       :      1.92051
Magnitude (Debye)      :      4.88154

Rotational constants in cm-1:     0.000000     0.097124     0.097124
Rotational constants in MHz :     0.000000  2911.693161  2911.693161

                             ****ORCA TERMINATED NORMALLY****
TOTAL RUN TIME: 0 days 0 hours 0 minutes 9 seconds 379 msec
