                         Program Version 4.2.0 -  RELEASE  -
|  1> #
|  2> # 13_VH tpss/aug-cc-pvtz
|  3> #
|  4> ! tpss d3bj aug-cc-pvtz def2/j grid4 nofinalgrid
|  5>
|  6> *xyz 0 5
|  7>   V   0.00000000000000      0.00000000000000      0.15541431667182
|  8>   H   0.00000000000000      0.00000000000000      1.84458568332818
|  9> *
| 10>
| 11> %pal
| 12> nprocs 24
| 13> end
| 14>
| 15>
| 16>                          ****END OF INPUT****

CARTESIAN COORDINATES (ANGSTROEM)
---------------------------------
  V      0.000000    0.000000    0.155414
  H      0.000000    0.000000    1.844586

 Total Charge           Charge          ....    0
 Multiplicity           Mult            ....    5
 Number of Electrons    NEL             ....   24
 Basis Dimension        Dim             ....  116

ORBITAL ENERGIES
----------------
                 SPIN UP ORBITALS
  NO   OCC          E(Eh)            E(eV)
   0   1.0000    -196.086396     -5335.7821
   1   1.0000     -21.857194      -594.7645
   2   1.0000     -18.376098      -500.0390
   3   1.0000     -18.376098      -500.0390
   4   1.0000     -18.366390      -499.7749
   5   1.0000      -2.507391       -68.2296
   6   1.0000      -1.569471       -42.7075
   7   1.0000      -1.569471       -42.7075
   8   1.0000      -1.557894       -42.3924
   9   1.0000      -0.241505        -6.5717
  10   1.0000      -0.175017        -4.7625
  11   1.0000      -0.156658        -4.2629
  12   1.0000      -0.156658        -4.2629
  13   1.0000      -0.151381        -4.1193
  14   0.0000      -0.126329        -3.4376
  15   0.0000      -0.083969        -2.2849
  16   0.0000      -0.048967        -1.3325
  17   0.0000      -0.048967        -1.3325
  18   0.0000      -0.000408        -0.0111

                 SPIN DOWN ORBITALS
  NO   OCC          E(Eh)            E(eV)
   0   1.0000    -196.085764     -5335.7649
   1   1.0000     -21.821413      -593.7908
   2   1.0000     -18.347987      -499.2741
   3   1.0000     -18.347987      -499.2741
   4   1.0000     -18.335954      -498.9467
   5   1.0000      -2.398617       -65.2697
   6   1.0000      -1.464418       -39.8489
   7   1.0000      -1.464418       -39.8489
   8   1.0000      -1.434709       -39.0404
   9   1.0000      -0.229990        -6.2583
  10   0.0000      -0.093050        -2.5320
  11   0.0000      -0.071214        -1.9378
  12   0.0000      -0.046464        -1.2643
  13   0.0000      -0.039841        -1.0841
  14   0.0000      -0.039841        -1.0841

MULLIKEN ATOMIC CHARGES AND SPIN POPULATIONS
--------------------------------------------
   0 V :    0.156065    4.123824
   1 H :   -0.156065   -0.123824
Sum of atomic charges         :    0.0000000

LOEWDIN ATOMIC CHARGES AND SPIN POPULATIONS
-------------------------------------------
   0 V :    0.720875    3.825116
   1 H :   -0.720875    0.174884

  Mayer bond orders larger than 0.100000
B(  0-V ,  1-H ) :   0.9861

Dispersion correction           -0.000647296
FINAL SINGLE POINT ENERGY      -944.557489211739

DIPOLE MOMENT
-------------
                                X             Y             Z
Electronic contribution:      0.00000       0.00000      -2.67234
Nuclear contribution   :      0.00000       0.00000       1.70553
                        -----------------------------------------
Total Dipole Moment    :      0.00000       0.00000      -0.96680
                        -----------------------------------------
Magnitude (a.u.)       :      0.96680
Magnitude (Debye)      :      2.45742

Rotational constants in cm-1:     0.000000     5.977214     5.977214
Rotational constants in MHz :     0.000000 179192.381350 179192.381350

                             ****ORCA TERMINATED NORMALLY****
TOTAL RUN TIME: 0 days 0 hours 0 minutes 8 seconds 835 msec
