                         Program Version 4.2.0 -  RELEASE  -
|  1> #
|  2> # 14_VF tpss/aug-cc-pvtz
|  3> #
|  4> ! tpss d3bj aug-cc-pvtz def2/j grid4 nofinalgrid
|  5>
|  6> *xyz 0 5
|  7>   V   0.00000000000000      0.00000000000000      0.09137228252025
|  8>   F   0.00000000000000      0.00000000000000      1.90862771747975
|  9> *
| 10>
| 11> %pal
| 12> nprocs 24
| 13> end
| 14>
| 15>
| 16>                          ****END OF INPUT****

CARTESIAN COORDINATES (ANGSTROEM)
---------------------------------
  V      0.000000    0.000000    0.091372
  F      0.000000    0.000000    1.908628

 Total Charge           Charge          ....    0
 Multiplicity           Mult            ....    5
 Number of Electrons    NEL             ....   32
 Basis Dimension        Dim             ....  139

ORBITAL ENERGIES
----------------
                 SPIN UP ORBITALS
  NO   OCC          E(Eh)            E(eV)
   0   1.0000    -196.103274     -5336.2414
   1   1.0000     -24.354431      -662.7178
   2   1.0000     -21.876566      -595.2916
   3   1.0000     -18.397292      -500.6158
   4   1.0000     -18.392640      -500.4892
   5   1.0000     -18.386948      -500.3343
   6   1.0000      -2.524660       -68.6995
   7   1.0000      -1.592769       -43.3415
   8   1.0000      -1.582965       -43.0747
   9   1.0000      -1.574627       -42.8478
  10   1.0000      -1.023385       -27.8477
  11   1.0000      -0.352477        -9.5914
  12   1.0000      -0.327781        -8.9194
  13   1.0000      -0.325655        -8.8615
  14   1.0000      -0.175386        -4.7725
  15   1.0000      -0.161703        -4.4002
  16   1.0000      -0.161214        -4.3869
  17   1.0000      -0.157030        -4.2730
  18   0.0000      -0.129053        -3.5117
  19   0.0000      -0.103961        -2.8289
  20   0.0000      -0.040139        -1.0922
  21   0.0000      -0.038056        -1.0356
  22   0.0000      -0.001433        -0.0390

                 SPIN DOWN ORBITALS
  NO   OCC          E(Eh)            E(eV)
   0   1.0000    -196.102423     -5336.2182
   1   1.0000     -24.355415      -662.7445
   2   1.0000     -21.841453      -594.3361
   3   1.0000     -18.375624      -500.0262
   4   1.0000     -18.363081      -499.6848
   5   1.0000     -18.352876      -499.4071
   6   1.0000      -2.419038       -65.8254
   7   1.0000      -1.508995       -41.0618
   8   1.0000      -1.472245       -40.0618
   9   1.0000      -1.445978       -39.3471
  10   1.0000      -1.023906       -27.8619
  11   1.0000      -0.348232        -9.4759
  12   1.0000      -0.326068        -8.8728
  13   1.0000      -0.318662        -8.6712
  14   0.0000      -0.093265        -2.5379
  15   0.0000      -0.073171        -1.9911
  16   0.0000      -0.048628        -1.3232
  17   0.0000      -0.044398        -1.2081
  18   0.0000      -0.042833        -1.1655

MULLIKEN ATOMIC CHARGES AND SPIN POPULATIONS
--------------------------------------------
   0 V :    0.546459    4.025585
   1 F :   -0.546459   -0.025585
Sum of atomic charges         :    0.0000000

LOEWDIN ATOMIC CHARGES AND SPIN POPULATIONS
-------------------------------------------
   0 V :    0.312717    3.910235
   1 F :   -0.312717    0.089765

  Mayer bond orders larger than 0.100000
B(  0-V ,  1-F ) :   0.8876

Dispersion correction           -0.000649654
FINAL SINGLE POINT ENERGY     -1043.937249354688

DIPOLE MOMENT
-------------
                                X             Y             Z
Electronic contribution:      0.00000       0.00000      -2.34581
Nuclear contribution   :      0.00000       0.00000       1.05599
                        -----------------------------------------
Total Dipole Moment    :      0.00000       0.00000      -1.28981
                        -----------------------------------------
Magnitude (a.u.)       :      1.28981
Magnitude (Debye)      :      3.27844

Rotational constants in cm-1:     0.000000     0.368902     0.368902
Rotational constants in MHz :     0.000000 11059.411965 11059.411965

                             ****ORCA TERMINATED NORMALLY****
TOTAL RUN TIME: 0 days 0 hours 0 minutes 7 seconds 704 msec
