                         Program Version 4.2.0 -  RELEASE  -
|  1> #
|  2> # 17_VO tpss/aug-cc-pvtz
|  3> #
|  4> ! tpss d3bj aug-cc-pvtz def2/j grid4 nofinalgrid
|  5>
|  6> *xyz 0 4
|  7>   V   0.00000000000000      0.00000000000000      0.20415600493149
|  8>   O   0.00000000000000      0.00000000000000      1.79584399506851
|  9> *
| 10>
| 11> %pal
| 12> nprocs 24
| 13> end
| 14>
| 15>
| 16>                          ****END OF INPUT****

CARTESIAN COORDINATES (ANGSTROEM)
---------------------------------
  V      0.000000    0.000000    0.204156
  O      0.000000    0.000000    1.795844

 Total Charge           Charge          ....    0
 Multiplicity           Mult            ....    4
 Number of Electrons    NEL             ....   31
 Basis Dimension        Dim             ....  139

ORBITAL ENERGIES
----------------
                 SPIN UP ORBITALS
  NO   OCC          E(Eh)            E(eV)
   0   1.0000    -196.118481     -5336.6552
   1   1.0000     -21.894565      -595.7814
   2   1.0000     -18.876593      -513.6582
   3   1.0000     -18.418406      -501.1903
   4   1.0000     -18.407151      -500.8840
   5   1.0000     -18.407151      -500.8840
   6   1.0000      -2.528690       -68.8092
   7   1.0000      -1.604536       -43.6616
   8   1.0000      -1.581949       -43.0470
   9   1.0000      -1.581949       -43.0470
  10   1.0000      -0.810519       -22.0554
  11   1.0000      -0.304777        -8.2934
  12   1.0000      -0.292148        -7.9498
  13   1.0000      -0.292148        -7.9498
  14   1.0000      -0.168391        -4.5822
  15   1.0000      -0.163240        -4.4420
  16   1.0000      -0.163239        -4.4420
  17   0.0000      -0.112061        -3.0493
  18   0.0000      -0.112061        -3.0493
  19   0.0000      -0.082436        -2.2432
  20   0.0000      -0.022801        -0.6204
  21   0.0000      -0.022801        -0.6204

                 SPIN DOWN ORBITALS
  NO   OCC          E(Eh)            E(eV)
   0   1.0000    -196.117768     -5336.6358
   1   1.0000     -21.868084      -595.0608
   2   1.0000     -18.884167      -513.8643
   3   1.0000     -18.407005      -500.8801
   4   1.0000     -18.380734      -500.1652
   5   1.0000     -18.380734      -500.1652
   6   1.0000      -2.449335       -66.6498
   7   1.0000      -1.560821       -42.4721
   8   1.0000      -1.481403       -40.3110
   9   1.0000      -1.481403       -40.3110
  10   1.0000      -0.823095       -22.3976
  11   1.0000      -0.297464        -8.0944
  12   1.0000      -0.293488        -7.9862
  13   1.0000      -0.293488        -7.9862
  14   0.0000      -0.103262        -2.8099
  15   0.0000      -0.065489        -1.7821
  16   0.0000      -0.065489        -1.7821
  17   0.0000      -0.056907        -1.5485
  18   0.0000      -0.056864        -1.5474

MULLIKEN ATOMIC CHARGES AND SPIN POPULATIONS
--------------------------------------------
   0 V :    0.490242    3.275151
   1 O :   -0.490242   -0.275151
Sum of atomic charges         :   -0.0000000

LOEWDIN ATOMIC CHARGES AND SPIN POPULATIONS
-------------------------------------------
   0 V :    0.560537    3.038564
   1 O :   -0.560537   -0.038564

  Mayer bond orders larger than 0.100000
B(  0-V ,  1-O ) :   2.3043

Dispersion correction           -0.000901231
FINAL SINGLE POINT ENERGY     -1019.309729911187

DIPOLE MOMENT
-------------
                                X             Y             Z
Electronic contribution:     -0.00000      -0.00000      -3.15137
Nuclear contribution   :      0.00000       0.00000       1.77684
                        -----------------------------------------
Total Dipole Moment    :     -0.00000      -0.00000      -1.37453
                        -----------------------------------------
Magnitude (a.u.)       :      1.37453
Magnitude (Debye)      :      3.49378

Rotational constants in cm-1:     0.000000     0.546523     0.546523
Rotational constants in MHz :     0.000000 16384.348098 16384.348098

                             ****ORCA TERMINATED NORMALLY****
TOTAL RUN TIME: 0 days 0 hours 0 minutes 8 seconds 588 msec
