                         Program Version 4.2.0 -  RELEASE  -
|  1> #
|  2> # 18_VS tpss/aug-cc-pvtz
|  3> #
|  4> ! tpss d3bj aug-cc-pvtz def2/j grid4 nofinalgrid
|  5>
|  6> *xyz 0 4
|  7>   V   0.00000000000000      0.00000000000000     -0.02784157502378
|  8>   S   0.00000000000000      0.00000000000000      2.02784157502377
|  9> *
| 10>
| 11> %pal
| 12> nprocs 24
| 13> end
| 14>
| 15>
| 16>                          ****END OF INPUT****

CARTESIAN COORDINATES (ANGSTROEM)
---------------------------------
  V      0.000000    0.000000   -0.027842
  S      0.000000    0.000000    2.027842

 Total Charge           Charge          ....    0
 Multiplicity           Mult            ....    4
 Number of Electrons    NEL             ....   39
 Basis Dimension        Dim             ....  143

ORBITAL ENERGIES
----------------
                 SPIN UP ORBITALS
  NO   OCC          E(Eh)            E(eV)
   0   1.0000    -196.107349     -5336.3523
   1   1.0000     -88.339523     -2403.8406
   2   1.0000     -21.878352      -595.3402
   3   1.0000     -18.400027      -500.6902
   4   1.0000     -18.391711      -500.4639
   5   1.0000     -18.391711      -500.4639
   6   1.0000      -7.698210      -209.4789
   7   1.0000      -5.675280      -154.4322
   8   1.0000      -5.675280      -154.4322
   9   1.0000      -5.674162      -154.4018
  10   1.0000      -2.520017       -68.5731
  11   1.0000      -1.588324       -43.2205
  12   1.0000      -1.574157       -42.8350
  13   1.0000      -1.574157       -42.8350
  14   1.0000      -0.571604       -15.5541
  15   1.0000      -0.252623        -6.8742
  16   1.0000      -0.223788        -6.0896
  17   1.0000      -0.223788        -6.0896
  18   1.0000      -0.175485        -4.7752
  19   1.0000      -0.159322        -4.3354
  20   1.0000      -0.159321        -4.3354
  21   0.0000      -0.123600        -3.3633
  22   0.0000      -0.123600        -3.3633
  23   0.0000      -0.102733        -2.7955
  24   0.0000      -0.029033        -0.7900
  25   0.0000      -0.029033        -0.7900

                 SPIN DOWN ORBITALS
  NO   OCC          E(Eh)            E(eV)
   0   1.0000    -196.106872     -5336.3393
   1   1.0000     -88.341979     -2403.9075
   2   1.0000     -21.847636      -594.5044
   3   1.0000     -18.382913      -500.2245
   4   1.0000     -18.363124      -499.6860
   5   1.0000     -18.363124      -499.6860
   6   1.0000      -7.700474      -209.5406
   7   1.0000      -5.678716      -154.5257
   8   1.0000      -5.678716      -154.5257
   9   1.0000      -5.677040      -154.4801
  10   1.0000      -2.426767       -66.0357
  11   1.0000      -1.518948       -41.3327
  12   1.0000      -1.465495       -39.8782
  13   1.0000      -1.465495       -39.8782
  14   1.0000      -0.585644       -15.9362
  15   1.0000      -0.241398        -6.5688
  16   1.0000      -0.223519        -6.0823
  17   1.0000      -0.223519        -6.0823
  18   0.0000      -0.103791        -2.8243
  19   0.0000      -0.077275        -2.1028
  20   0.0000      -0.077275        -2.1028
  21   0.0000      -0.065785        -1.7901
  22   0.0000      -0.049424        -1.3449

MULLIKEN ATOMIC CHARGES AND SPIN POPULATIONS
--------------------------------------------
   0 V :    0.126385    3.478606
   1 S :   -0.126385   -0.478606
Sum of atomic charges         :    0.0000000

LOEWDIN ATOMIC CHARGES AND SPIN POPULATIONS
-------------------------------------------
   0 V :    0.018148    3.200442
   1 S :   -0.018148   -0.200442

  Mayer bond orders larger than 0.100000
B(  0-V ,  1-S ) :   2.5260

Dispersion correction           -0.002123203
FINAL SINGLE POINT ENERGY     -1342.276652375122

DIPOLE MOMENT
-------------
                                X             Y             Z
Electronic contribution:     -0.00000       0.00000      -5.67276
Nuclear contribution   :      0.00000       0.00000       3.63475
                        -----------------------------------------
Total Dipole Moment    :     -0.00000       0.00000      -2.03801
                        -----------------------------------------
Magnitude (a.u.)       :      2.03801
Magnitude (Debye)      :      5.18022

Rotational constants in cm-1:     0.000000     0.202740     0.202740
Rotational constants in MHz :     0.000000  6078.002656  6078.002656

                             ****ORCA TERMINATED NORMALLY****
TOTAL RUN TIME: 0 days 0 hours 0 minutes 9 seconds 866 msec
