                         Program Version 4.2.0 -  RELEASE  -
|  1> #
|  2> # 20_CrF tpss/aug-cc-pvtz
|  3> #
|  4> ! tpss d3bj aug-cc-pvtz def2/j grid4 nofinalgrid
|  5>
|  6> *xyz 0 6
|  7>   Cr  0.00000000000000      0.00000000000000      0.10659678981823
|  8>   F   0.00000000000000      0.00000000000000      1.89340321018177
|  9> *
| 10>
| 11> %pal
| 12> nprocs 24
| 13> end
| 14>
| 15>
| 16>                          ****END OF INPUT****

CARTESIAN COORDINATES (ANGSTROEM)
---------------------------------
  Cr     0.000000    0.000000    0.106597
  F      0.000000    0.000000    1.893403

 Total Charge           Charge          ....    0
 Multiplicity           Mult            ....    6
 Number of Electrons    NEL             ....   33
 Basis Dimension        Dim             ....  139

ORBITAL ENERGIES
----------------
                 SPIN UP ORBITALS
  NO   OCC          E(Eh)            E(eV)
   0   1.0000    -214.929660     -5848.5334
   1   1.0000     -24.340165      -662.3296
   2   1.0000     -24.332121      -662.1107
   3   1.0000     -20.636519      -561.5482
   4   1.0000     -20.633872      -561.4762
   5   1.0000     -20.633872      -561.4762
   6   1.0000      -2.795786       -76.0772
   7   1.0000      -1.775334       -48.3093
   8   1.0000      -1.767031       -48.0834
   9   1.0000      -1.767031       -48.0834
  10   1.0000      -1.013793       -27.5867
  11   1.0000      -0.345245        -9.3946
  12   1.0000      -0.320283        -8.7154
  13   1.0000      -0.320283        -8.7154
  14   1.0000      -0.187799        -5.1103
  15   1.0000      -0.187799        -5.1103
  16   1.0000      -0.179093        -4.8734
  17   1.0000      -0.179093        -4.8734
  18   1.0000      -0.178881        -4.8676
  19   0.0000      -0.114904        -3.1267
  20   0.0000      -0.037887        -1.0310
  21   0.0000      -0.037887        -1.0310
  22   0.0000      -0.000219        -0.0059
  23   0.0000       0.004156         0.1131

                 SPIN DOWN ORBITALS
  NO   OCC          E(Eh)            E(eV)
   0   1.0000    -214.928670     -5848.5065
   1   1.0000     -24.339893      -662.3222
   2   1.0000     -24.280001      -660.6924
   3   1.0000     -20.599339      -560.5365
   4   1.0000     -20.589274      -560.2626
   5   1.0000     -20.589274      -560.2626
   6   1.0000      -2.643152       -71.9238
   7   1.0000      -1.634221       -44.4694
   8   1.0000      -1.606575       -43.7171
   9   1.0000      -1.606575       -43.7171
  10   1.0000      -1.011930       -27.5360
  11   1.0000      -0.339833        -9.2473
  12   1.0000      -0.307372        -8.3640
  13   1.0000      -0.307372        -8.3640
  14   0.0000      -0.091470        -2.4890
  15   0.0000      -0.042702        -1.1620
  16   0.0000      -0.042678        -1.1613
  17   0.0000      -0.041115        -1.1188
  18   0.0000      -0.037923        -1.0319

MULLIKEN ATOMIC CHARGES AND SPIN POPULATIONS
--------------------------------------------
   0 Cr:    0.547890    5.023837
   1 F :   -0.547890   -0.023837
Sum of atomic charges         :    0.0000000

LOEWDIN ATOMIC CHARGES AND SPIN POPULATIONS
-------------------------------------------
   0 Cr:    0.365073    4.862598
   1 F :   -0.365073    0.137402

  Mayer bond orders larger than 0.100000
B(  0-Cr,  1-F ) :   0.7484

Dispersion correction           -0.000612397
FINAL SINGLE POINT ENERGY     -1144.443801135961

DIPOLE MOMENT
-------------
                                X             Y             Z
Electronic contribution:      0.00000      -0.00000      -2.01953
Nuclear contribution   :      0.00000       0.00000       0.57299
                        -----------------------------------------
Total Dipole Moment    :      0.00000      -0.00000      -1.44654
                        -----------------------------------------
Magnitude (a.u.)       :      1.44654
Magnitude (Debye)      :      3.67682

Rotational constants in cm-1:     0.000000     0.379469     0.379469
Rotational constants in MHz :     0.000000 11376.206933 11376.206933

                             ****ORCA TERMINATED NORMALLY****
TOTAL RUN TIME: 0 days 0 hours 0 minutes 7 seconds 24 msec
