                         Program Version 4.2.0 -  RELEASE  -
|  1> #
|  2> # 22_CrBr tpss/aug-cc-pvtz
|  3> #
|  4> ! tpss d3bj aug-cc-pvtz def2/j grid4 nofinalgrid
|  5>
|  6> *xyz 0 6
|  7>   Cr  0.00000000000000      0.00000000000000     -0.17198862284832
|  8>   Br  0.00000000000000      0.00000000000000      2.17198862284831
|  9> *
| 10>
| 11> %pal
| 12> nprocs 24
| 13> end
| 14>
| 15>
| 16>                          ****END OF INPUT****

CARTESIAN COORDINATES (ANGSTROEM)
---------------------------------
  Cr     0.000000    0.000000   -0.171989
  Br     0.000000    0.000000    2.171989

 Total Charge           Charge          ....    0
 Multiplicity           Mult            ....    6
 Number of Electrons    NEL             ....   59
 Basis Dimension        Dim             ....  152

ORBITAL ENERGIES
----------------
                 SPIN UP ORBITALS
  NO   OCC          E(Eh)            E(eV)
   0   1.0000    -481.693911    -13107.5577
   1   1.0000    -214.923304     -5848.3604
   2   1.0000     -61.911486     -1684.6972
   3   1.0000     -55.744070     -1516.8733
   4   1.0000     -55.743163     -1516.8486
   5   1.0000     -55.743163     -1516.8486
   6   1.0000     -24.319105      -661.7565
   7   1.0000     -20.622074      -561.1552
   8   1.0000     -20.621660      -561.1439
   9   1.0000     -20.621660      -561.1439
  10   1.0000      -8.437262      -229.5896
  11   1.0000      -6.275835      -170.7741
  12   1.0000      -6.272420      -170.6812
  13   1.0000      -6.272420      -170.6812
  14   1.0000      -2.788155       -75.8695
  15   1.0000      -2.444319       -66.5133
  16   1.0000      -2.443387       -66.4879
  17   1.0000      -2.443387       -66.4879
  18   1.0000      -2.440685       -66.4144
  19   1.0000      -2.440636       -66.4131
  20   1.0000      -1.766980       -48.0820
  21   1.0000      -1.760501       -47.9057
  22   1.0000      -1.760501       -47.9057
  23   1.0000      -0.665463       -18.1082
  24   1.0000      -0.287077        -7.8118
  25   1.0000      -0.252305        -6.8656
  26   1.0000      -0.252305        -6.8656
  27   1.0000      -0.185602        -5.0505
  28   1.0000      -0.185601        -5.0504
  29   1.0000      -0.184120        -5.0102
  30   1.0000      -0.179861        -4.8943
  31   1.0000      -0.179861        -4.8943
  32   0.0000      -0.127442        -3.4679
  33   0.0000      -0.042155        -1.1471
  34   0.0000      -0.042155        -1.1471
  35   0.0000      -0.002751        -0.0749
  36   0.0000       0.001223         0.0333

                 SPIN DOWN ORBITALS
  NO   OCC          E(Eh)            E(eV)
   0   1.0000    -481.694073    -13107.5621
   1   1.0000    -214.922604     -5848.3414
   2   1.0000     -61.911518     -1684.6981
   3   1.0000     -55.744442     -1516.8834
   4   1.0000     -55.743156     -1516.8484
   5   1.0000     -55.743156     -1516.8484
   6   1.0000     -24.265571      -660.2998
   7   1.0000     -20.582234      -560.0711
   8   1.0000     -20.576795      -559.9230
   9   1.0000     -20.576795      -559.9230
  10   1.0000      -8.437454      -229.5948
  11   1.0000      -6.276501      -170.7923
  12   1.0000      -6.272412      -170.6810
  13   1.0000      -6.272412      -170.6810
  14   1.0000      -2.629804       -71.5606
  15   1.0000      -2.444978       -66.5312
  16   1.0000      -2.443851       -66.5006
  17   1.0000      -2.443851       -66.5006
  18   1.0000      -2.440559       -66.4110
  19   1.0000      -2.440509       -66.4096
  20   1.0000      -1.612735       -43.8848
  21   1.0000      -1.597373       -43.4667
  22   1.0000      -1.597373       -43.4667
  23   1.0000      -0.666652       -18.1405
  24   1.0000      -0.277503        -7.5513
  25   1.0000      -0.241709        -6.5772
  26   1.0000      -0.241709        -6.5772
  27   0.0000      -0.097330        -2.6485
  28   0.0000      -0.051562        -1.4031
  29   0.0000      -0.045614        -1.2412
  30   0.0000      -0.045614        -1.2412
  31   0.0000      -0.040830        -1.1110

MULLIKEN ATOMIC CHARGES AND SPIN POPULATIONS
--------------------------------------------
   0 Cr:    0.225165    5.120886
   1 Br:   -0.225165   -0.120886
Sum of atomic charges         :    0.0000000

LOEWDIN ATOMIC CHARGES AND SPIN POPULATIONS
-------------------------------------------
   0 Cr:   -0.087975    4.900614
   1 Br:    0.087975    0.099386

  Mayer bond orders larger than 0.100000
B(  0-Cr,  1-Br) :   1.1904

Dispersion correction           -0.001966899
FINAL SINGLE POINT ENERGY     -3618.682281015382

DIPOLE MOMENT
-------------
                                X             Y             Z
Electronic contribution:      0.00000       0.00000       1.35382
Nuclear contribution   :      0.00000       0.00000      -3.27761
                        -----------------------------------------
Total Dipole Moment    :      0.00000       0.00000      -1.92379
                        -----------------------------------------
Magnitude (a.u.)       :      1.92379
Magnitude (Debye)      :      4.88990

Rotational constants in cm-1:     0.000000     0.097406     0.097406
Rotational constants in MHz :     0.000000  2920.152240  2920.152240

                             ****ORCA TERMINATED NORMALLY****
TOTAL RUN TIME: 0 days 0 hours 0 minutes 10 seconds 29 msec
