                         Program Version 4.2.0 -  RELEASE  -
|  1> #
|  2> # 26_MnF tpss/aug-cc-pvtz
|  3> #
|  4> ! tpss d3bj aug-cc-pvtz def2/j grid4 nofinalgrid
|  5>
|  6> *xyz 0 7
|  7>   Mn  0.00000000000000      0.00000000000000      0.08590077209256
|  8>   F   0.00000000000000      0.00000000000000      1.91409922790744
|  9> *
| 10>
| 11> %pal
| 12> nprocs 24
| 13> end
| 14>
| 15>
| 16>                          ****END OF INPUT****

CARTESIAN COORDINATES (ANGSTROEM)
---------------------------------
  Mn     0.000000    0.000000    0.085901
  F      0.000000    0.000000    1.914099

 Total Charge           Charge          ....    0
 Multiplicity           Mult            ....    7
 Number of Electrons    NEL             ....   34
 Basis Dimension        Dim             ....  139

ORBITAL ENERGIES
----------------
                 SPIN UP ORBITALS
  NO   OCC          E(Eh)            E(eV)
   0   1.0000    -234.717350     -6386.9838
   1   1.0000     -27.016841      -735.1656
   2   1.0000     -24.350599      -662.6135
   3   1.0000     -23.104123      -628.6951
   4   1.0000     -23.104123      -628.6951
   5   1.0000     -23.099722      -628.5754
   6   1.0000      -3.178983       -86.5045
   7   1.0000      -2.065939       -56.2171
   8   1.0000      -2.065939       -56.2171
   9   1.0000      -2.054461       -55.9047
  10   1.0000      -1.029124       -28.0039
  11   1.0000      -0.380432       -10.3521
  12   1.0000      -0.347519        -9.4565
  13   1.0000      -0.347519        -9.4565
  14   1.0000      -0.310719        -8.4551
  15   1.0000      -0.310719        -8.4551
  16   1.0000      -0.268794        -7.3142
  17   1.0000      -0.268794        -7.3142
  18   1.0000      -0.262759        -7.1500
  19   1.0000      -0.174609        -4.7514
  20   0.0000      -0.053963        -1.4684
  21   0.0000      -0.053963        -1.4684
  22   0.0000      -0.007401        -0.2014
  23   0.0000      -0.001442        -0.0392
  24   0.0000       0.022928         0.6239

                 SPIN DOWN ORBITALS
  NO   OCC          E(Eh)            E(eV)
   0   1.0000    -234.715472     -6386.9327
   1   1.0000     -26.945740      -733.2309
   2   1.0000     -24.344725      -662.4536
   3   1.0000     -23.046122      -627.1169
   4   1.0000     -23.046122      -627.1169
   5   1.0000     -23.043096      -627.0345
   6   1.0000      -2.989411       -81.3460
   7   1.0000      -1.874704       -51.0133
   8   1.0000      -1.874704       -51.0133
   9   1.0000      -1.867018       -50.8042
  10   1.0000      -1.016574       -27.6624
  11   1.0000      -0.346240        -9.4217
  12   1.0000      -0.314967        -8.5707
  13   1.0000      -0.314967        -8.5707
  14   0.0000      -0.134838        -3.6691
  15   0.0000      -0.134807        -3.6683
  16   0.0000      -0.130402        -3.5484
  17   0.0000      -0.114923        -3.1272
  18   0.0000      -0.114923        -3.1272

MULLIKEN ATOMIC CHARGES AND SPIN POPULATIONS
--------------------------------------------
   0 Mn:    0.586101    5.846603
   1 F :   -0.586101    0.153397
Sum of atomic charges         :    0.0000000

LOEWDIN ATOMIC CHARGES AND SPIN POPULATIONS
-------------------------------------------
   0 Mn:    0.417313    5.719274
   1 F :   -0.417313    0.280726

  Mayer bond orders larger than 0.100000
B(  0-Mn,  1-F ) :   0.7569

Dispersion correction           -0.000549264
FINAL SINGLE POINT ENERGY     -1250.977654724895

DIPOLE MOMENT
-------------
                                X             Y             Z
Electronic contribution:     -0.00000      -0.00000      -1.71980
Nuclear contribution   :      0.00000       0.00000       0.91162
                        -----------------------------------------
Total Dipole Moment    :     -0.00000      -0.00000      -0.80819
                        -----------------------------------------
Magnitude (a.u.)       :      0.80819
Magnitude (Debye)      :      2.05425

Rotational constants in cm-1:     0.000000     0.357290     0.357290
Rotational constants in MHz :     0.000000 10711.297675 10711.297675

                             ****ORCA TERMINATED NORMALLY****
TOTAL RUN TIME: 0 days 0 hours 0 minutes 6 seconds 930 msec
