                         Program Version 4.2.0 -  RELEASE  -
|  1> #
|  2> # 28_MnBr tpss/aug-cc-pvtz
|  3> #
|  4> ! tpss d3bj aug-cc-pvtz def2/j grid4 nofinalgrid
|  5>
|  6> *xyz 0 7
|  7>   Mn  0.00000000000000      0.00000000000000     -0.18897622296313
|  8>   Br  0.00000000000000      0.00000000000000      2.18897622296313
|  9> *
| 10>
| 11> %pal
| 12> nprocs 24
| 13> end
| 14>
| 15>
| 16>                          ****END OF INPUT****

CARTESIAN COORDINATES (ANGSTROEM)
---------------------------------
  Mn     0.000000    0.000000   -0.188976
  Br     0.000000    0.000000    2.188976

 Total Charge           Charge          ....    0
 Multiplicity           Mult            ....    7
 Number of Electrons    NEL             ....   60
 Basis Dimension        Dim             ....  152

ORBITAL ENERGIES
----------------
                 SPIN UP ORBITALS
  NO   OCC          E(Eh)            E(eV)
   0   1.0000    -481.712826    -13108.0724
   1   1.0000    -234.734488     -6387.4502
   2   1.0000     -61.930278     -1685.2085
   3   1.0000     -55.762906     -1517.3858
   4   1.0000     -55.762164     -1517.3656
   5   1.0000     -55.762164     -1517.3656
   6   1.0000     -27.033430      -735.6170
   7   1.0000     -23.120253      -629.1341
   8   1.0000     -23.120253      -629.1341
   9   1.0000     -23.117286      -629.0533
  10   1.0000      -8.456343      -230.1088
  11   1.0000      -6.294064      -171.2702
  12   1.0000      -6.292016      -171.2145
  13   1.0000      -6.292016      -171.2145
  14   1.0000      -3.194339       -86.9224
  15   1.0000      -2.462998       -67.0216
  16   1.0000      -2.462311       -67.0029
  17   1.0000      -2.462311       -67.0029
  18   1.0000      -2.460623       -66.9570
  19   1.0000      -2.460577       -66.9557
  20   1.0000      -2.080247       -56.6064
  21   1.0000      -2.080247       -56.6064
  22   1.0000      -2.070920       -56.3526
  23   1.0000      -0.689849       -18.7717
  24   1.0000      -0.343410        -9.3447
  25   1.0000      -0.325728        -8.8635
  26   1.0000      -0.325728        -8.8635
  27   1.0000      -0.323751        -8.8097
  28   1.0000      -0.323749        -8.8097
  29   1.0000      -0.280398        -7.6300
  30   1.0000      -0.252235        -6.8637
  31   1.0000      -0.252235        -6.8637
  32   1.0000      -0.177339        -4.8256
  33   0.0000      -0.062295        -1.6951
  34   0.0000      -0.062295        -1.6951
  35   0.0000      -0.011263        -0.3065
  36   0.0000      -0.004269        -0.1162
  37   0.0000       0.017854         0.4858

                 SPIN DOWN ORBITALS
  NO   OCC          E(Eh)            E(eV)
   0   1.0000    -481.712348    -13108.0594
   1   1.0000    -234.732694     -6387.4013
   2   1.0000     -61.930109     -1685.2039
   3   1.0000     -55.762414     -1517.3724
   4   1.0000     -55.761819     -1517.3562
   5   1.0000     -55.761819     -1517.3562
   6   1.0000     -26.962568      -733.6888
   7   1.0000     -23.062485      -627.5621
   8   1.0000     -23.062485      -627.5621
   9   1.0000     -23.060875      -627.5183
  10   1.0000      -8.455696      -230.0912
  11   1.0000      -6.293224      -171.2473
  12   1.0000      -6.291336      -171.1960
  13   1.0000      -6.291336      -171.1960
  14   1.0000      -3.004991       -81.7700
  15   1.0000      -2.461960       -66.9933
  16   1.0000      -2.461319       -66.9759
  17   1.0000      -2.461319       -66.9759
  18   1.0000      -2.459760       -66.9335
  19   1.0000      -2.459714       -66.9322
  20   1.0000      -1.889145       -51.4062
  21   1.0000      -1.889145       -51.4062
  22   1.0000      -1.883412       -51.2502
  23   1.0000      -0.682995       -18.5852
  24   1.0000      -0.302065        -8.2196
  25   1.0000      -0.261110        -7.1052
  26   1.0000      -0.261110        -7.1052
  27   0.0000      -0.148313        -4.0358
  28   0.0000      -0.148312        -4.0358
  29   0.0000      -0.147705        -4.0193
  30   0.0000      -0.139943        -3.8080
  31   0.0000      -0.139943        -3.8080

MULLIKEN ATOMIC CHARGES AND SPIN POPULATIONS
--------------------------------------------
   0 Mn:    0.384796    5.828002
   1 Br:   -0.384796    0.171998
Sum of atomic charges         :   -0.0000000

LOEWDIN ATOMIC CHARGES AND SPIN POPULATIONS
-------------------------------------------
   0 Mn:    0.007351    5.682706
   1 Br:   -0.007351    0.317294

  Mayer bond orders larger than 0.100000
B(  0-Mn,  1-Br) :   1.0390

Dispersion correction           -0.001699827
FINAL SINGLE POINT ENERGY     -3725.215855257547

DIPOLE MOMENT
-------------
                                X             Y             Z
Electronic contribution:      0.00000       0.00000       1.55430
Nuclear contribution   :      0.00000       0.00000      -2.48612
                        -----------------------------------------
Total Dipole Moment    :      0.00000       0.00000      -0.93182
                        -----------------------------------------
Magnitude (a.u.)       :      0.93182
Magnitude (Debye)      :      2.36851

Rotational constants in cm-1:     0.000000     0.091574     0.091574
Rotational constants in MHz :     0.000000  2745.330169  2745.330169

                             ****ORCA TERMINATED NORMALLY****
TOTAL RUN TIME: 0 days 0 hours 0 minutes 10 seconds 25 msec
