                         Program Version 4.2.0 -  RELEASE  -
|  1> #
|  2> # 34_FeBr tpss/aug-cc-pvtz
|  3> #
|  4> ! tpss d3bj aug-cc-pvtz def2/j grid4 nofinalgrid
|  5>
|  6> *xyz 0 6
|  7>   Fe  0.00000000000000      0.00000000000000     -0.16252996889250
|  8>   Br  0.00000000000000      0.00000000000000      2.16252996889250
|  9> *
| 10>
| 11> %pal
| 12> nprocs 24
| 13> end
| 14>
| 15>
| 16>                          ****END OF INPUT****

CARTESIAN COORDINATES (ANGSTROEM)
---------------------------------
  Fe     0.000000    0.000000   -0.162530
  Br     0.000000    0.000000    2.162530

 Total Charge           Charge          ....    0
 Multiplicity           Mult            ....    6
 Number of Electrons    NEL             ....   61
 Basis Dimension        Dim             ....  152

ORBITAL ENERGIES
----------------
                 SPIN UP ORBITALS
  NO   OCC          E(Eh)            E(eV)
   0   1.0000    -481.727677    -13108.4765
   1   1.0000    -255.306268     -6947.2367
   2   1.0000     -61.945038     -1685.6102
   3   1.0000     -55.778093     -1517.7991
   4   1.0000     -55.776804     -1517.7640
   5   1.0000     -55.776804     -1517.7640
   6   1.0000     -29.728534      -808.9545
   7   1.0000     -25.616609      -697.0634
   8   1.0000     -25.589382      -696.3225
   9   1.0000     -25.589382      -696.3225
  10   1.0000      -8.471148      -230.5117
  11   1.0000      -6.308993      -171.6764
  12   1.0000      -6.306787      -171.6164
  13   1.0000      -6.306787      -171.6164
  14   1.0000      -3.456900       -94.0670
  15   1.0000      -2.477998       -67.4298
  16   1.0000      -2.477232       -67.4089
  17   1.0000      -2.477232       -67.4089
  18   1.0000      -2.475370       -67.3582
  19   1.0000      -2.475327       -67.3571
  20   1.0000      -2.283662       -62.1416
  21   1.0000      -2.232598       -60.7521
  22   1.0000      -2.232598       -60.7521
  23   1.0000      -0.705354       -19.1937
  24   1.0000      -0.365763        -9.9529
  25   1.0000      -0.345156        -9.3922
  26   1.0000      -0.345156        -9.3922
  27   1.0000      -0.323762        -8.8100
  28   1.0000      -0.296167        -8.0591
  29   1.0000      -0.283977        -7.7274
  30   1.0000      -0.265661        -7.2290
  31   1.0000      -0.265661        -7.2290
  32   1.0000      -0.177246        -4.8231
  33   0.0000      -0.054016        -1.4698
  34   0.0000      -0.054016        -1.4698
  35   0.0000      -0.010225        -0.2782
  36   0.0000      -0.002169        -0.0590
  37   0.0000       0.019774         0.5381

                 SPIN DOWN ORBITALS
  NO   OCC          E(Eh)            E(eV)
   0   1.0000    -481.726985    -13108.4577
   1   1.0000    -255.304447     -6947.1872
   2   1.0000     -61.944802     -1685.6038
   3   1.0000     -55.777423     -1517.7808
   4   1.0000     -55.776287     -1517.7499
   5   1.0000     -55.776287     -1517.7499
   6   1.0000     -29.667321      -807.2889
   7   1.0000     -25.559045      -695.4970
   8   1.0000     -25.543746      -695.0807
   9   1.0000     -25.543746      -695.0807
  10   1.0000      -8.470221      -230.4864
  11   1.0000      -6.307830      -171.6448
  12   1.0000      -6.305792      -171.5893
  13   1.0000      -6.305792      -171.5893
  14   1.0000      -3.302169       -89.8566
  15   1.0000      -2.476549       -67.3903
  16   1.0000      -2.475833       -67.3708
  17   1.0000      -2.475833       -67.3708
  18   1.0000      -2.474102       -67.3237
  19   1.0000      -2.474057       -67.3225
  20   1.0000      -2.100100       -57.1466
  21   1.0000      -2.091918       -56.9240
  22   1.0000      -2.091918       -56.9240
  23   1.0000      -0.695734       -18.9319
  24   1.0000      -0.318682        -8.6718
  25   1.0000      -0.272868        -7.4251
  26   1.0000      -0.272868        -7.4251
  27   1.0000      -0.217608        -5.9214
  28   0.0000      -0.183460        -4.9922
  29   0.0000      -0.171432        -4.6649
  30   0.0000      -0.171432        -4.6649
  31   0.0000      -0.138718        -3.7747
  32   0.0000      -0.116134        -3.1602

MULLIKEN ATOMIC CHARGES AND SPIN POPULATIONS
--------------------------------------------
   0 Fe:    0.333460    4.718734
   1 Br:   -0.333460    0.281266
Sum of atomic charges         :   -0.0000000

LOEWDIN ATOMIC CHARGES AND SPIN POPULATIONS
-------------------------------------------
   0 Fe:   -0.047979    4.602842
   1 Br:    0.047979    0.397158

  Mayer bond orders larger than 0.100000
B(  0-Fe,  1-Br) :   1.1303

Dispersion correction           -0.001604595
FINAL SINGLE POINT ENERGY     -3837.911727315803

DIPOLE MOMENT
-------------
                                X             Y             Z
Electronic contribution:     -0.00000       0.00000       3.35217
Nuclear contribution   :      0.00000       0.00000      -3.96973
                        -----------------------------------------
Total Dipole Moment    :     -0.00000       0.00000      -0.61756
                        -----------------------------------------
Magnitude (a.u.)       :      0.61756
Magnitude (Debye)      :      1.56971

Rotational constants in cm-1:     0.000000     0.094863     0.094863
Rotational constants in MHz :     0.000000  2843.931812  2843.931812

                             ****ORCA TERMINATED NORMALLY****
TOTAL RUN TIME: 0 days 0 hours 0 minutes 9 seconds 471 msec
