                         Program Version 4.2.0 -  RELEASE  -
|  1> #
|  2> # 35_FeO tpss/aug-cc-pvtz
|  3> #
|  4> ! tpss d3bj aug-cc-pvtz def2/j grid4 nofinalgrid
|  5>
|  6> *xyz 0 5
|  7>   Fe  0.00000000000000      0.00000000000000      0.19611340956582
|  8>   O   0.00000000000000      0.00000000000000      1.80388659043418
|  9> *
| 10>
| 11> %pal
| 12> nprocs 24
| 13> end
| 14>
| 15>
| 16>                          ****END OF INPUT****

CARTESIAN COORDINATES (ANGSTROEM)
---------------------------------
  Fe     0.000000    0.000000    0.196113
  O      0.000000    0.000000    1.803887

 Total Charge           Charge          ....    0
 Multiplicity           Mult            ....    5
 Number of Electrons    NEL             ....   34
 Basis Dimension        Dim             ....  139

ORBITAL ENERGIES
----------------
                 SPIN UP ORBITALS
  NO   OCC          E(Eh)            E(eV)
   0   1.0000    -255.248628     -6945.6683
   1   1.0000     -29.661713      -807.1362
   2   1.0000     -25.546002      -695.1421
   3   1.0000     -25.526501      -694.6114
   4   1.0000     -25.526501      -694.6114
   5   1.0000     -18.871108      -513.5090
   6   1.0000      -3.380988       -92.0014
   7   1.0000      -2.206091       -60.0308
   8   1.0000      -2.160919       -58.8016
   9   1.0000      -2.160919       -58.8016
  10   1.0000      -0.825578       -22.4651
  11   1.0000      -0.332476        -9.0471
  12   1.0000      -0.322262        -8.7692
  13   1.0000      -0.322262        -8.7692
  14   1.0000      -0.260520        -7.0891
  15   1.0000      -0.221786        -6.0351
  16   1.0000      -0.211577        -5.7573
  17   1.0000      -0.199788        -5.4365
  18   1.0000      -0.199788        -5.4365
  19   0.0000      -0.126441        -3.4406
  20   0.0000      -0.028767        -0.7828
  21   0.0000      -0.028767        -0.7828
  22   0.0000       0.001911         0.0520
  23   0.0000       0.008367         0.2277

                 SPIN DOWN ORBITALS
  NO   OCC          E(Eh)            E(eV)
   0   1.0000    -255.247181     -6945.6289
   1   1.0000     -29.613674      -805.8290
   2   1.0000     -25.505656      -694.0442
   3   1.0000     -25.488229      -693.5700
   4   1.0000     -25.488229      -693.5700
   5   1.0000     -18.860450      -513.2189
   6   1.0000      -3.260932       -88.7345
   7   1.0000      -2.074122       -56.4397
   8   1.0000      -2.046861       -55.6979
   9   1.0000      -2.046861       -55.6979
  10   1.0000      -0.801627       -21.8134
  11   1.0000      -0.299054        -8.1377
  12   1.0000      -0.257905        -7.0180
  13   1.0000      -0.257905        -7.0180
  14   1.0000      -0.172514        -4.6943
  15   0.0000      -0.138384        -3.7656
  16   0.0000      -0.104997        -2.8571
  17   0.0000      -0.104997        -2.8571
  18   0.0000      -0.099333        -2.7030
  19   0.0000      -0.080647        -2.1945

MULLIKEN ATOMIC CHARGES AND SPIN POPULATIONS
--------------------------------------------
   0 Fe:    0.560261    3.534040
   1 O :   -0.560261    0.465960
Sum of atomic charges         :   -0.0000000

LOEWDIN ATOMIC CHARGES AND SPIN POPULATIONS
-------------------------------------------
   0 Fe:    0.578231    3.469225
   1 O :   -0.578231    0.530775

  Mayer bond orders larger than 0.100000
B(  0-Fe,  1-O ) :   2.0715

Dispersion correction           -0.000705793
FINAL SINGLE POINT ENERGY     -1339.019867156097

DIPOLE MOMENT
-------------
                                X             Y             Z
Electronic contribution:      0.00000       0.00000      -3.04735
Nuclear contribution   :      0.00000       0.00000       1.30353
                        -----------------------------------------
Total Dipole Moment    :      0.00000       0.00000      -1.74383
                        -----------------------------------------
Magnitude (a.u.)       :      1.74383
Magnitude (Debye)      :      4.43246

Rotational constants in cm-1:     0.000000     0.524387     0.524387
Rotational constants in MHz :     0.000000 15720.731712 15720.731712

                             ****ORCA TERMINATED NORMALLY****
TOTAL RUN TIME: 0 days 0 hours 0 minutes 9 seconds 372 msec
