                         Program Version 4.2.0 -  RELEASE  -
|  1> #
|  2> # 36_FeS tpss/aug-cc-pvtz
|  3> #
|  4> ! tpss d3bj aug-cc-pvtz def2/j grid4 nofinalgrid
|  5>
|  6> *xyz 0 5
|  7>   Fe  0.00000000000000      0.00000000000000     -0.00599090985654
|  8>   S   0.00000000000000      0.00000000000000      2.00599090985654
|  9> *
| 10>
| 11> %pal
| 12> nprocs 24
| 13> end
| 14>
| 15>
| 16>                          ****END OF INPUT****

CARTESIAN COORDINATES (ANGSTROEM)
---------------------------------
  Fe     0.000000    0.000000   -0.005991
  S      0.000000    0.000000    2.005991

 Total Charge           Charge          ....    0
 Multiplicity           Mult            ....    5
 Number of Electrons    NEL             ....   42
 Basis Dimension        Dim             ....  143

ORBITAL ENERGIES
----------------
                 SPIN UP ORBITALS
  NO   OCC          E(Eh)            E(eV)
   0   1.0000    -255.245552     -6945.5846
   1   1.0000     -88.348237     -2404.0778
   2   1.0000     -29.653992      -806.9261
   3   1.0000     -25.537943      -694.9228
   4   1.0000     -25.518871      -694.4038
   5   1.0000     -25.518871      -694.4038
   6   1.0000      -7.704999      -209.6637
   7   1.0000      -5.682736      -154.6351
   8   1.0000      -5.682736      -154.6351
   9   1.0000      -5.682597      -154.6313
  10   1.0000      -3.377650       -91.9105
  11   1.0000      -2.201000       -59.8923
  12   1.0000      -2.158417       -58.7335
  13   1.0000      -2.158417       -58.7335
  14   1.0000      -0.593675       -16.1547
  15   1.0000      -0.302630        -8.2350
  16   1.0000      -0.288023        -7.8375
  17   1.0000      -0.288023        -7.8375
  18   1.0000      -0.260251        -7.0818
  19   1.0000      -0.227185        -6.1820
  20   1.0000      -0.222127        -6.0444
  21   1.0000      -0.194320        -5.2877
  22   1.0000      -0.194320        -5.2877
  23   0.0000      -0.132452        -3.6042
  24   0.0000      -0.032195        -0.8761
  25   0.0000      -0.032195        -0.8761
  26   0.0000       0.001135         0.0309
  27   0.0000       0.004660         0.1268

                 SPIN DOWN ORBITALS
  NO   OCC          E(Eh)            E(eV)
   0   1.0000    -255.244442     -6945.5544
   1   1.0000     -88.346371     -2404.0270
   2   1.0000     -29.604223      -805.5719
   3   1.0000     -25.494590      -693.7431
   4   1.0000     -25.480157      -693.3503
   5   1.0000     -25.480157      -693.3503
   6   1.0000      -7.703261      -209.6164
   7   1.0000      -5.682908      -154.6398
   8   1.0000      -5.678856      -154.5295
   9   1.0000      -5.678855      -154.5295
  10   1.0000      -3.252208       -88.4971
  11   1.0000      -2.058302       -56.0092
  12   1.0000      -2.041488       -55.5517
  13   1.0000      -2.041488       -55.5517
  14   1.0000      -0.579821       -15.7777
  15   1.0000      -0.262407        -7.1405
  16   1.0000      -0.219308        -5.9677
  17   1.0000      -0.219308        -5.9677
  18   1.0000      -0.170466        -4.6386
  19   0.0000      -0.145732        -3.9656
  20   0.0000      -0.121891        -3.3168
  21   0.0000      -0.121891        -3.3168
  22   0.0000      -0.097755        -2.6600
  23   0.0000      -0.094529        -2.5723

MULLIKEN ATOMIC CHARGES AND SPIN POPULATIONS
--------------------------------------------
   0 Fe:    0.292006    3.489536
   1 S :   -0.292006    0.510464
Sum of atomic charges         :    0.0000000

LOEWDIN ATOMIC CHARGES AND SPIN POPULATIONS
-------------------------------------------
   0 Fe:    0.083822    3.477560
   1 S :   -0.083822    0.522440

  Mayer bond orders larger than 0.100000
B(  0-Fe,  1-S ) :   2.2716

Dispersion correction           -0.001619969
FINAL SINGLE POINT ENERGY     -1662.020788785511

DIPOLE MOMENT
-------------
                                X             Y             Z
Electronic contribution:     -0.00000       0.00000      -4.57196
Nuclear contribution   :      0.00000       0.00000       2.59672
                        -----------------------------------------
Total Dipole Moment    :     -0.00000       0.00000      -1.97524
                        -----------------------------------------
Magnitude (a.u.)       :      1.97524
Magnitude (Debye)      :      5.02067

Rotational constants in cm-1:     0.000000     0.204456     0.204456
Rotational constants in MHz :     0.000000  6129.444038  6129.444038

                             ****ORCA TERMINATED NORMALLY****
TOTAL RUN TIME: 0 days 0 hours 0 minutes 8 seconds 422 msec
