                         Program Version 4.2.0 -  RELEASE  -
|  1> #
|  2> # 40_CoBr tpss/aug-cc-pvtz
|  3> #
|  4> ! tpss d3bj aug-cc-pvtz def2/j grid4 nofinalgrid
|  5>
|  6> *xyz 0 3
|  7>   Co  0.00000000000000      0.00000000000000     -0.10327875603907
|  8>   Br  0.00000000000000      0.00000000000000      2.10327875603907
|  9> *
| 10>
| 11> %pal
| 12> nprocs 24
| 13> end
| 14>
| 15>
| 16>                          ****END OF INPUT****

CARTESIAN COORDINATES (ANGSTROEM)
---------------------------------
  Co     0.000000    0.000000   -0.103279
  Br     0.000000    0.000000    2.103279

 Total Charge           Charge          ....    0
 Multiplicity           Mult            ....    3
 Number of Electrons    NEL             ....   62
 Basis Dimension        Dim             ....  152

ORBITAL ENERGIES
----------------
                 SPIN UP ORBITALS
  NO   OCC          E(Eh)            E(eV)
   0   1.0000    -481.709968    -13107.9946
   1   1.0000    -276.632922     -7527.5645
   2   1.0000     -61.927199     -1685.1248
   3   1.0000     -55.760509     -1517.3206
   4   1.0000     -55.758693     -1517.2712
   5   1.0000     -55.758693     -1517.2712
   6   1.0000     -32.410145      -881.9249
   7   1.0000     -28.085650      -764.2494
   8   1.0000     -28.055431      -763.4271
   9   1.0000     -28.055430      -763.4271
  10   1.0000      -8.453038      -230.0189
  11   1.0000      -6.292011      -171.2143
  12   1.0000      -6.288031      -171.1060
  13   1.0000      -6.288031      -171.1060
  14   1.0000      -3.598195       -97.9119
  15   1.0000      -2.460638       -66.9574
  16   1.0000      -2.459374       -66.9230
  17   1.0000      -2.459374       -66.9230
  18   1.0000      -2.456185       -66.8362
  19   1.0000      -2.456141       -66.8350
  20   1.0000      -2.347106       -63.8680
  21   1.0000      -2.278706       -62.0068
  22   1.0000      -2.278706       -62.0067
  23   1.0000      -0.682802       -18.5800
  24   1.0000      -0.311330        -8.4717
  25   1.0000      -0.278524        -7.5790
  26   1.0000      -0.278524        -7.5790
  27   1.0000      -0.222757        -6.0615
  28   1.0000      -0.222757        -6.0615
  29   1.0000      -0.203719        -5.5435
  30   1.0000      -0.184912        -5.0317
  31   1.0000      -0.184910        -5.0317
  32   0.0000      -0.132520        -3.6061
  33   0.0000      -0.020778        -0.5654
  34   0.0000      -0.020778        -0.5654
  35   0.0000       0.005279         0.1437
  36   0.0000       0.006855         0.1865

                 SPIN DOWN ORBITALS
  NO   OCC          E(Eh)            E(eV)
   0   1.0000    -481.709748    -13107.9886
   1   1.0000    -276.632502     -7527.5531
   2   1.0000     -61.927120     -1685.1226
   3   1.0000     -55.760495     -1517.3202
   4   1.0000     -55.758418     -1517.2637
   5   1.0000     -55.758418     -1517.2637
   6   1.0000     -32.378118      -881.0534
   7   1.0000     -28.051199      -763.3119
   8   1.0000     -28.033610      -762.8333
   9   1.0000     -28.033610      -762.8333
  10   1.0000      -8.452739      -230.0107
  11   1.0000      -6.291992      -171.2138
  12   1.0000      -6.287530      -171.0924
  13   1.0000      -6.287530      -171.0924
  14   1.0000      -3.516565       -95.6906
  15   1.0000      -2.460462       -66.9526
  16   1.0000      -2.459079       -66.9149
  17   1.0000      -2.459079       -66.9149
  18   1.0000      -2.455453       -66.8163
  19   1.0000      -2.455409       -66.8151
  20   1.0000      -2.239196       -60.9316
  21   1.0000      -2.210754       -60.1577
  22   1.0000      -2.210754       -60.1577
  23   1.0000      -0.679740       -18.4967
  24   1.0000      -0.305029        -8.3002
  25   1.0000      -0.253487        -6.8977
  26   1.0000      -0.253487        -6.8977
  27   1.0000      -0.189287        -5.1508
  28   1.0000      -0.143381        -3.9016
  29   1.0000      -0.143379        -3.9015
  30   0.0000      -0.118224        -3.2170
  31   0.0000      -0.118224        -3.2170
  32   0.0000      -0.114417        -3.1134
  33   0.0000      -0.017669        -0.4808
  34   0.0000      -0.017668        -0.4808

MULLIKEN ATOMIC CHARGES AND SPIN POPULATIONS
--------------------------------------------
   0 Co:    0.405487    1.918672
   1 Br:   -0.405487    0.081328
Sum of atomic charges         :   -0.0000000

LOEWDIN ATOMIC CHARGES AND SPIN POPULATIONS
-------------------------------------------
   0 Co:   -0.102572    1.860440
   1 Br:    0.102572    0.139560

  Mayer bond orders larger than 0.100000
B(  0-Co,  1-Br) :   1.3142

Dispersion correction           -0.001638002
FINAL SINGLE POINT ENERGY     -3956.981076475070

DIPOLE MOMENT
-------------
                                X             Y             Z
Electronic contribution:      0.00000       0.00000       1.10174
Nuclear contribution   :      0.00000       0.00000      -2.84584
                        -----------------------------------------
Total Dipole Moment    :      0.00000       0.00000      -1.74410
                        -----------------------------------------
Magnitude (a.u.)       :      1.74410
Magnitude (Debye)      :      4.43315

Rotational constants in cm-1:     0.000000     0.102086     0.102086
Rotational constants in MHz :     0.000000  3060.463500  3060.463500

                             ****ORCA TERMINATED NORMALLY****
TOTAL RUN TIME: 0 days 0 hours 0 minutes 10 seconds 686 msec
