                         Program Version 4.2.0 -  RELEASE  -
|  1> #
|  2> # 41_CoO tpss/aug-cc-pvtz
|  3> #
|  4> ! tpss d3bj aug-cc-pvtz def2/j grid4 nofinalgrid
|  5>
|  6> *xyz 0 4
|  7>   Co  0.00000000000000      0.00000000000000      0.18722579130779
|  8>   O   0.00000000000000      0.00000000000000      1.81277420869221
|  9> *
| 10>
| 11> %pal
| 12> nprocs 24
| 13> end
| 14>
| 15>
| 16>                          ****END OF INPUT****

CARTESIAN COORDINATES (ANGSTROEM)
---------------------------------
  Co     0.000000    0.000000    0.187226
  O      0.000000    0.000000    1.812774

 Total Charge           Charge          ....    0
 Multiplicity           Mult            ....    4
 Number of Electrons    NEL             ....   35
 Basis Dimension        Dim             ....  139

ORBITAL ENERGIES
----------------
                 SPIN UP ORBITALS
  NO   OCC          E(Eh)            E(eV)
   0   1.0000    -276.710645     -7529.6795
   1   1.0000     -32.511686      -884.6880
   2   1.0000     -28.167217      -766.4689
   3   1.0000     -28.167217      -766.4689
   4   1.0000     -28.162201      -766.3324
   5   1.0000     -18.901957      -514.3484
   6   1.0000      -3.693504      -100.5054
   7   1.0000      -2.395459       -65.1837
   8   1.0000      -2.395458       -65.1837
   9   1.0000      -2.393862       -65.1403
  10   1.0000      -0.852440       -23.1961
  11   1.0000      -0.349614        -9.5135
  12   1.0000      -0.347184        -9.4474
  13   1.0000      -0.347184        -9.4473
  14   1.0000      -0.315959        -8.5977
  15   1.0000      -0.273151        -7.4328
  16   1.0000      -0.235104        -6.3975
  17   1.0000      -0.235104        -6.3975
  18   1.0000      -0.219331        -5.9683
  19   0.0000      -0.137183        -3.7329
  20   0.0000      -0.024423        -0.6646
  21   0.0000      -0.024423        -0.6646
  22   0.0000       0.005380         0.1464
  23   0.0000       0.010578         0.2878

                 SPIN DOWN ORBITALS
  NO   OCC          E(Eh)            E(eV)
   0   1.0000    -276.709911     -7529.6595
   1   1.0000     -32.470770      -883.5746
   2   1.0000     -28.132510      -765.5245
   3   1.0000     -28.132510      -765.5245
   4   1.0000     -28.131622      -765.5003
   5   1.0000     -18.883195      -513.8378
   6   1.0000      -3.593248       -97.7772
   7   1.0000      -2.303982       -62.6945
   8   1.0000      -2.290603       -62.3305
   9   1.0000      -2.290603       -62.3305
  10   1.0000      -0.810864       -22.0647
  11   1.0000      -0.323614        -8.8060
  12   1.0000      -0.271454        -7.3866
  13   1.0000      -0.271454        -7.3866
  14   1.0000      -0.242996        -6.6123
  15   1.0000      -0.190509        -5.1840
  16   0.0000      -0.169250        -4.6055
  17   0.0000      -0.146560        -3.9881
  18   0.0000      -0.146560        -3.9881
  19   0.0000      -0.111075        -3.0225
  20   0.0000      -0.014170        -0.3856

MULLIKEN ATOMIC CHARGES AND SPIN POPULATIONS
--------------------------------------------
   0 Co:    0.512481    2.242893
   1 O :   -0.512481    0.757107
Sum of atomic charges         :   -0.0000000

LOEWDIN ATOMIC CHARGES AND SPIN POPULATIONS
-------------------------------------------
   0 Co:    0.545442    2.325146
   1 O :   -0.545442    0.674854

  Mayer bond orders larger than 0.100000
B(  0-Co,  1-O ) :   2.0508

Dispersion correction           -0.000715325
FINAL SINGLE POINT ENERGY     -1458.069073570501

DIPOLE MOMENT
-------------
                                X             Y             Z
Electronic contribution:     -0.00000      -0.00000      -3.27694
Nuclear contribution   :      0.00000       0.00000       1.61802
                        -----------------------------------------
Total Dipole Moment    :     -0.00000      -0.00000      -1.65892
                        -----------------------------------------
Magnitude (a.u.)       :      1.65892
Magnitude (Debye)      :      4.21665

Rotational constants in cm-1:     0.000000     0.507011     0.507011
Rotational constants in MHz :     0.000000 15199.819890 15199.819890

                             ****ORCA TERMINATED NORMALLY****
TOTAL RUN TIME: 0 days 0 hours 0 minutes 13 seconds 999 msec
