                         Program Version 4.2.0 -  RELEASE  -
|  1> #
|  2> # 43_NiH tpss/aug-cc-pvtz
|  3> #
|  4> ! tpss d3bj aug-cc-pvtz def2/j grid4 nofinalgrid
|  5>
|  6> *xyz 0 2
|  7>   Ni  0.00000000000000      0.00000000000000      0.25339129346416
|  8>   H   0.00000000000000      0.00000000000000      1.74660870653584
|  9> *
| 10>
| 11> %pal
| 12> nprocs 24
| 13> end
| 14>
| 15>
| 16>                          ****END OF INPUT****

CARTESIAN COORDINATES (ANGSTROEM)
---------------------------------
  Ni     0.000000    0.000000    0.253391
  H      0.000000    0.000000    1.746609

 Total Charge           Charge          ....    0
 Multiplicity           Mult            ....    2
 Number of Electrons    NEL             ....   29
 Basis Dimension        Dim             ....  116

ORBITAL ENERGIES
----------------
                 SPIN UP ORBITALS
  NO   OCC          E(Eh)            E(eV)
   0   1.0000    -298.889145     -8133.1871
   1   1.0000     -35.292255      -960.3511
   2   1.0000     -30.750048      -836.7513
   3   1.0000     -30.719538      -835.9211
   4   1.0000     -30.719537      -835.9211
   5   1.0000      -3.826193      -104.1160
   6   1.0000      -2.477385       -67.4131
   7   1.0000      -2.413882       -65.6851
   8   1.0000      -2.413881       -65.6850
   9   1.0000      -0.280546        -7.6340
  10   1.0000      -0.194995        -5.3061
  11   1.0000      -0.178812        -4.8657
  12   1.0000      -0.178811        -4.8657
  13   1.0000      -0.155479        -4.2308
  14   1.0000      -0.155479        -4.2308
  15   0.0000      -0.091624        -2.4932
  16   0.0000      -0.023232        -0.6322
  17   0.0000      -0.023232        -0.6322
  18   0.0000       0.008731         0.2376
  19   0.0000       0.019656         0.5349

                 SPIN DOWN ORBITALS
  NO   OCC          E(Eh)            E(eV)
   0   1.0000    -298.888685     -8133.1746
   1   1.0000     -35.279092      -959.9929
   2   1.0000     -30.733070      -836.2893
   3   1.0000     -30.711977      -835.7154
   4   1.0000     -30.711976      -835.7154
   5   1.0000      -3.793907      -103.2375
   6   1.0000      -2.416163       -65.7471
   7   1.0000      -2.396490       -65.2118
   8   1.0000      -2.396489       -65.2118
   9   1.0000      -0.267968        -7.2918
  10   1.0000      -0.169206        -4.6043
  11   1.0000      -0.169205        -4.6043
  12   1.0000      -0.131126        -3.5681
  13   1.0000      -0.131126        -3.5681
  14   0.0000      -0.127723        -3.4755
  15   0.0000      -0.077983        -2.1220
  16   0.0000      -0.011734        -0.3193
  17   0.0000      -0.011734        -0.3193
  18   0.0000       0.013702         0.3728

MULLIKEN ATOMIC CHARGES AND SPIN POPULATIONS
--------------------------------------------
   0 Ni:   -0.006582    1.022255
   1 H :    0.006582   -0.022255
Sum of atomic charges         :    0.0000000

LOEWDIN ATOMIC CHARGES AND SPIN POPULATIONS
-------------------------------------------
   0 Ni:    0.552435    0.959568
   1 H :   -0.552435    0.040432

  Mayer bond orders larger than 0.100000
B(  0-Ni,  1-H ) :   1.0593

Dispersion correction           -0.000525958
FINAL SINGLE POINT ENERGY     -1508.957144504857

DIPOLE MOMENT
-------------
                                X             Y             Z
Electronic contribution:     -0.00000      -0.00000      -2.45763
Nuclear contribution   :      0.00000       0.00000       1.44028
                        -----------------------------------------
Total Dipole Moment    :     -0.00000      -0.00000      -1.01735
                        -----------------------------------------
Magnitude (a.u.)       :      1.01735
Magnitude (Debye)      :      2.58590

Rotational constants in cm-1:     0.000000     7.629300     7.629300
Rotational constants in MHz :     0.000000 228720.664008 228720.664008

                             ****ORCA TERMINATED NORMALLY****
TOTAL RUN TIME: 0 days 0 hours 0 minutes 7 seconds 149 msec
