                         Program Version 4.2.0 -  RELEASE  -
|  1> #
|  2> # 44_NiF tpss/aug-cc-pvtz
|  3> #
|  4> ! tpss d3bj aug-cc-pvtz def2/j grid4 nofinalgrid
|  5>
|  6> *xyz 0 2
|  7>   Ni  0.00000000000000      0.00000000000000      0.12374716283349
|  8>   F   0.00000000000000      0.00000000000000      1.87625283716651
|  9> *
| 10>
| 11> %pal
| 12> nprocs 24
| 13> end
| 14>
| 15>
| 16>                          ****END OF INPUT****

CARTESIAN COORDINATES (ANGSTROEM)
---------------------------------
  Ni     0.000000    0.000000    0.123747
  F      0.000000    0.000000    1.876253

 Total Charge           Charge          ....    0
 Multiplicity           Mult            ....    2
 Number of Electrons    NEL             ....   37
 Basis Dimension        Dim             ....  139

ORBITAL ENERGIES
----------------
                 SPIN UP ORBITALS
  NO   OCC          E(Eh)            E(eV)
   0   1.0000    -298.913888     -8133.8604
   1   1.0000     -35.314491      -960.9561
   2   1.0000     -30.770257      -837.3013
   3   1.0000     -30.742716      -836.5518
   4   1.0000     -30.742716      -836.5518
   5   1.0000     -24.323056      -661.8640
   6   1.0000      -3.853732      -104.8654
   7   1.0000      -2.506016       -68.1922
   8   1.0000      -2.441158       -66.4273
   9   1.0000      -2.441158       -66.4273
  10   1.0000      -0.996308       -27.1109
  11   1.0000      -0.345507        -9.4017
  12   1.0000      -0.296838        -8.0774
  13   1.0000      -0.296838        -8.0774
  14   1.0000      -0.217450        -5.9171
  15   1.0000      -0.186026        -5.0620
  16   1.0000      -0.186026        -5.0620
  17   1.0000      -0.181930        -4.9506
  18   1.0000      -0.181930        -4.9506
  19   0.0000      -0.131268        -3.5720
  20   0.0000      -0.018089        -0.4922
  21   0.0000      -0.018089        -0.4922
  22   0.0000       0.007054         0.1919
  23   0.0000       0.013227         0.3599

                 SPIN DOWN ORBITALS
  NO   OCC          E(Eh)            E(eV)
   0   1.0000    -298.913448     -8133.8484
   1   1.0000     -35.300349      -960.5713
   2   1.0000     -30.752084      -836.8067
   3   1.0000     -30.734539      -836.3293
   4   1.0000     -30.734539      -836.3293
   5   1.0000     -24.322919      -661.8603
   6   1.0000      -3.819084      -103.9226
   7   1.0000      -2.440778       -66.4169
   8   1.0000      -2.422299       -65.9141
   9   1.0000      -2.422299       -65.9141
  10   1.0000      -0.995843       -27.0983
  11   1.0000      -0.333518        -9.0755
  12   1.0000      -0.295149        -8.0314
  13   1.0000      -0.295149        -8.0314
  14   1.0000      -0.177219        -4.8224
  15   1.0000      -0.177219        -4.8224
  16   1.0000      -0.157012        -4.2725
  17   1.0000      -0.157012        -4.2725
  18   0.0000      -0.146797        -3.9946
  19   0.0000      -0.108699        -2.9578
  20   0.0000      -0.010069        -0.2740
  21   0.0000      -0.010069        -0.2740
  22   0.0000       0.010099         0.2748

MULLIKEN ATOMIC CHARGES AND SPIN POPULATIONS
--------------------------------------------
   0 Ni:    0.610703    0.968619
   1 F :   -0.610703    0.031381
Sum of atomic charges         :    0.0000000

LOEWDIN ATOMIC CHARGES AND SPIN POPULATIONS
-------------------------------------------
   0 Ni:    0.433616    0.958948
   1 F :   -0.433616    0.041052

  Mayer bond orders larger than 0.100000
B(  0-Ni,  1-F ) :   0.7215

Dispersion correction           -0.000551391
FINAL SINGLE POINT ENERGY     -1608.287445357212

DIPOLE MOMENT
-------------
                                X             Y             Z
Electronic contribution:      0.00000       0.00000      -1.60538
Nuclear contribution   :      0.00000       0.00000      -0.15532
                        -----------------------------------------
Total Dipole Moment    :      0.00000       0.00000      -1.76070
                        -----------------------------------------
Magnitude (a.u.)       :      1.76070
Magnitude (Debye)      :      4.47534

Rotational constants in cm-1:     0.000000     0.382421     0.382421
Rotational constants in MHz :     0.000000 11464.697327 11464.697327

                             ****ORCA TERMINATED NORMALLY****
TOTAL RUN TIME: 0 days 0 hours 0 minutes 6 seconds 566 msec
