                         Program Version 4.2.0 -  RELEASE  -
|  1> #
|  2> # 45_NiCl tpss/aug-cc-pvtz
|  3> #
|  4> ! tpss d3bj aug-cc-pvtz def2/j grid4 nofinalgrid
|  5>
|  6> *xyz 0 2
|  7>   Ni  0.00000000000000      0.00000000000000     -0.04672403924217
|  8>   Cl  0.00000000000000      0.00000000000000      2.04672403924217
|  9> *
| 10>
| 11> %pal
| 12> nprocs 24
| 13> end
| 14>
| 15>
| 16>                          ****END OF INPUT****

CARTESIAN COORDINATES (ANGSTROEM)
---------------------------------
  Ni     0.000000    0.000000   -0.046724
  Cl     0.000000    0.000000    2.046724

 Total Charge           Charge          ....    0
 Multiplicity           Mult            ....    2
 Number of Electrons    NEL             ....   45
 Basis Dimension        Dim             ....  143

ORBITAL ENERGIES
----------------
                 SPIN UP ORBITALS
  NO   OCC          E(Eh)            E(eV)
   0   1.0000    -298.924114     -8134.1387
   1   1.0000    -100.975415     -2747.6807
   2   1.0000     -35.324892      -961.2392
   3   1.0000     -30.781909      -837.6183
   4   1.0000     -30.752392      -836.8151
   5   1.0000     -30.752392      -836.8151
   6   1.0000      -9.199557      -250.3327
   7   1.0000      -6.976772      -189.8476
   8   1.0000      -6.971754      -189.7111
   9   1.0000      -6.971754      -189.7111
  10   1.0000      -3.864452      -105.1571
  11   1.0000      -2.517410       -68.5022
  12   1.0000      -2.451561       -66.7104
  13   1.0000      -2.451561       -66.7104
  14   1.0000      -0.703517       -19.1437
  15   1.0000      -0.322044        -8.7633
  16   1.0000      -0.269112        -7.3229
  17   1.0000      -0.269112        -7.3229
  18   1.0000      -0.235185        -6.3997
  19   1.0000      -0.197927        -5.3859
  20   1.0000      -0.197927        -5.3859
  21   1.0000      -0.191742        -5.2176
  22   1.0000      -0.191740        -5.2175
  23   0.0000      -0.132489        -3.6052
  24   0.0000      -0.021174        -0.5762
  25   0.0000      -0.021174        -0.5762
  26   0.0000       0.006852         0.1865
  27   0.0000       0.008633         0.2349

                 SPIN DOWN ORBITALS
  NO   OCC          E(Eh)            E(eV)
   0   1.0000    -298.923740     -8134.1285
   1   1.0000    -100.975516     -2747.6835
   2   1.0000     -35.309765      -960.8276
   3   1.0000     -30.762239      -837.0831
   4   1.0000     -30.743796      -836.5812
   5   1.0000     -30.743796      -836.5812
   6   1.0000      -9.199636      -250.3348
   7   1.0000      -6.976912      -189.8514
   8   1.0000      -6.971868      -189.7142
   9   1.0000      -6.971868      -189.7142
  10   1.0000      -3.827422      -104.1494
  11   1.0000      -2.449159       -66.6450
  12   1.0000      -2.430725       -66.1434
  13   1.0000      -2.430725       -66.1434
  14   1.0000      -0.703610       -19.1462
  15   1.0000      -0.308717        -8.4006
  16   1.0000      -0.266539        -7.2529
  17   1.0000      -0.266539        -7.2529
  18   1.0000      -0.189818        -5.1652
  19   1.0000      -0.189818        -5.1652
  20   1.0000      -0.165946        -4.5156
  21   1.0000      -0.165945        -4.5156
  22   0.0000      -0.156765        -4.2658
  23   0.0000      -0.117132        -3.1873
  24   0.0000      -0.014013        -0.3813
  25   0.0000      -0.014013        -0.3813
  26   0.0000       0.009576         0.2606

MULLIKEN ATOMIC CHARGES AND SPIN POPULATIONS
--------------------------------------------
   0 Ni:    0.475774    0.964840
   1 Cl:   -0.475774    0.035160
Sum of atomic charges         :   -0.0000000

LOEWDIN ATOMIC CHARGES AND SPIN POPULATIONS
-------------------------------------------
   0 Ni:    0.080820    0.967523
   1 Cl:   -0.080820    0.032477

  Mayer bond orders larger than 0.100000
B(  0-Ni,  1-Cl) :   0.9899

Dispersion correction           -0.001538111
FINAL SINGLE POINT ENERGY     -1968.670204030525

DIPOLE MOMENT
-------------
                                X             Y             Z
Electronic contribution:     -0.00000      -0.00000      -2.10284
Nuclear contribution   :      0.00000       0.00000       0.21916
                        -----------------------------------------
Total Dipole Moment    :     -0.00000      -0.00000      -1.88368
                        -----------------------------------------
Magnitude (a.u.)       :      1.88368
Magnitude (Debye)      :      4.78792

Rotational constants in cm-1:     0.000000     0.174027     0.174027
Rotational constants in MHz :     0.000000  5217.185595  5217.185595

                             ****ORCA TERMINATED NORMALLY****
TOTAL RUN TIME: 0 days 0 hours 0 minutes 7 seconds 688 msec
