                         Program Version 4.2.0 -  RELEASE  -
|  1> #
|  2> # 47_NiO tpss/aug-cc-pvtz
|  3> #
|  4> ! tpss d3bj aug-cc-pvtz def2/j grid4 nofinalgrid
|  5>
|  6> *xyz 0 3
|  7>   Ni  0.00000000000000      0.00000000000000      0.18512940996137
|  8>   O   0.00000000000000      0.00000000000000      1.81487059003863
|  9> *
| 10>
| 11> %pal
| 12> nprocs 24
| 13> end
| 14>
| 15>
| 16>                          ****END OF INPUT****

CARTESIAN COORDINATES (ANGSTROEM)
---------------------------------
  Ni     0.000000    0.000000    0.185129
  O      0.000000    0.000000    1.814871

 Total Charge           Charge          ....    0
 Multiplicity           Mult            ....    3
 Number of Electrons    NEL             ....   36
 Basis Dimension        Dim             ....  139

ORBITAL ENERGIES
----------------
                 SPIN UP ORBITALS
  NO   OCC          E(Eh)            E(eV)
   0   1.0000    -298.974014     -8135.4965
   1   1.0000     -35.394223      -963.1258
   2   1.0000     -30.842422      -839.2650
   3   1.0000     -30.824096      -838.7663
   4   1.0000     -30.824094      -838.7662
   5   1.0000     -18.910649      -514.5849
   6   1.0000      -3.929005      -106.9137
   7   1.0000      -2.572839       -70.0105
   8   1.0000      -2.517906       -68.5157
   9   1.0000      -2.517901       -68.5156
  10   1.0000      -0.859849       -23.3977
  11   1.0000      -0.345315        -9.3965
  12   1.0000      -0.337248        -9.1770
  13   1.0000      -0.337247        -9.1770
  14   1.0000      -0.237964        -6.4753
  15   1.0000      -0.237963        -6.4753
  16   1.0000      -0.234391        -6.3781
  17   1.0000      -0.234390        -6.3781
  18   1.0000      -0.214326        -5.8321
  19   0.0000      -0.132756        -3.6125
  20   0.0000      -0.016321        -0.4441
  21   0.0000      -0.016321        -0.4441
  22   0.0000       0.007697         0.2095
  23   0.0000       0.012072         0.3285

                 SPIN DOWN ORBITALS
  NO   OCC          E(Eh)            E(eV)
   0   1.0000    -298.973624     -8135.4859
   1   1.0000     -35.371889      -962.5180
   2   1.0000     -30.818482      -838.6135
   3   1.0000     -30.808827      -838.3508
   4   1.0000     -30.808826      -838.3508
   5   1.0000     -18.887594      -513.9576
   6   1.0000      -3.877688      -105.5173
   7   1.0000      -2.504916       -68.1622
   8   1.0000      -2.475894       -67.3725
   9   1.0000      -2.475892       -67.3725
  10   1.0000      -0.808554       -22.0019
  11   1.0000      -0.329325        -8.9614
  12   1.0000      -0.270348        -7.3566
  13   1.0000      -0.270346        -7.3565
  14   1.0000      -0.211579        -5.7573
  15   1.0000      -0.211578        -5.7573
  16   1.0000      -0.202946        -5.5224
  17   0.0000      -0.156707        -4.2642
  18   0.0000      -0.156707        -4.2642
  19   0.0000      -0.115387        -3.1398
  20   0.0000      -0.009679        -0.2634
  21   0.0000      -0.009679        -0.2634

MULLIKEN ATOMIC CHARGES AND SPIN POPULATIONS
--------------------------------------------
   0 Ni:    0.513131    1.084830
   1 O :   -0.513131    0.915170
Sum of atomic charges         :   -0.0000000

LOEWDIN ATOMIC CHARGES AND SPIN POPULATIONS
-------------------------------------------
   0 Ni:    0.491047    1.166186
   1 O :   -0.491047    0.833814

  Mayer bond orders larger than 0.100000
B(  0-Ni,  1-O ) :   1.9372

Dispersion correction           -0.000742888
FINAL SINGLE POINT ENERGY     -1583.620696951413

DIPOLE MOMENT
-------------
                                X             Y             Z
Electronic contribution:      0.00000       0.00000      -2.53581
Nuclear contribution   :      0.00000       0.00000       0.89170
                        -----------------------------------------
Total Dipole Moment    :      0.00000       0.00000      -1.64411
                        -----------------------------------------
Magnitude (a.u.)       :      1.64411
Magnitude (Debye)      :      4.17899

Rotational constants in cm-1:     0.000000     0.504828     0.504828
Rotational constants in MHz :     0.000000 15134.363944 15134.363944

                             ****ORCA TERMINATED NORMALLY****
TOTAL RUN TIME: 0 days 0 hours 0 minutes 10 seconds 23 msec
