                         Program Version 4.2.0 -  RELEASE  -
|  1> #
|  2> # 48_NiS tpss/aug-cc-pvtz
|  3> #
|  4> ! tpss d3bj aug-cc-pvtz def2/j grid4 nofinalgrid
|  5>
|  6> *xyz 0 3
|  7>   Ni  0.00000000000000      0.00000000000000      0.01491413562016
|  8>   S   0.00000000000000      0.00000000000000      1.98508586437984
|  9> *
| 10>
| 11> %pal
| 12> nprocs 24
| 13> end
| 14>
| 15>
| 16>                          ****END OF INPUT****

CARTESIAN COORDINATES (ANGSTROEM)
---------------------------------
  Ni     0.000000    0.000000    0.014914
  S      0.000000    0.000000    1.985086

 Total Charge           Charge          ....    0
 Multiplicity           Mult            ....    3
 Number of Electrons    NEL             ....   44
 Basis Dimension        Dim             ....  143

ORBITAL ENERGIES
----------------
                 SPIN UP ORBITALS
  NO   OCC          E(Eh)            E(eV)
   0   1.0000    -298.956037     -8135.0073
   1   1.0000     -88.381105     -2404.9721
   2   1.0000     -35.370877      -962.4905
   3   1.0000     -30.819070      -838.6295
   4   1.0000     -30.801364      -838.1477
   5   1.0000     -30.801364      -838.1477
   6   1.0000      -7.736116      -210.5104
   7   1.0000      -5.715906      -155.5377
   8   1.0000      -5.715906      -155.5377
   9   1.0000      -5.711628      -155.4213
  10   1.0000      -3.906024      -106.2883
  11   1.0000      -2.546514       -69.2942
  12   1.0000      -2.497542       -67.9616
  13   1.0000      -2.497542       -67.9616
  14   1.0000      -0.624043       -16.9811
  15   1.0000      -0.304962        -8.2984
  16   1.0000      -0.294045        -8.0014
  17   1.0000      -0.294045        -8.0014
  18   1.0000      -0.222102        -6.0437
  19   1.0000      -0.222101        -6.0437
  20   1.0000      -0.216777        -5.8988
  21   1.0000      -0.215565        -5.8658
  22   1.0000      -0.215565        -5.8658
  23   0.0000      -0.122218        -3.3257
  24   0.0000      -0.016235        -0.4418
  25   0.0000      -0.016235        -0.4418
  26   0.0000       0.005886         0.1602
  27   0.0000       0.008924         0.2428

                 SPIN DOWN ORBITALS
  NO   OCC          E(Eh)            E(eV)
   0   1.0000    -298.955692     -8134.9980
   1   1.0000     -88.376623     -2404.8502
   2   1.0000     -35.350619      -961.9393
   3   1.0000     -30.797377      -838.0392
   4   1.0000     -30.787519      -837.7710
   5   1.0000     -30.787519      -837.7710
   6   1.0000      -7.731940      -210.3968
   7   1.0000      -5.709418      -155.3612
   8   1.0000      -5.708043      -155.3237
   9   1.0000      -5.708043      -155.3237
  10   1.0000      -3.858950      -105.0074
  11   1.0000      -2.484321       -67.6018
  12   1.0000      -2.458846       -66.9086
  13   1.0000      -2.458846       -66.9086
  14   1.0000      -0.593417       -16.1477
  15   1.0000      -0.294051        -8.0015
  16   1.0000      -0.240689        -6.5495
  17   1.0000      -0.240689        -6.5495
  18   1.0000      -0.207804        -5.6546
  19   1.0000      -0.197700        -5.3797
  20   1.0000      -0.197699        -5.3797
  21   0.0000      -0.157830        -4.2948
  22   0.0000      -0.157830        -4.2948
  23   0.0000      -0.107201        -2.9171
  24   0.0000      -0.009344        -0.2543
  25   0.0000      -0.009344        -0.2543

MULLIKEN ATOMIC CHARGES AND SPIN POPULATIONS
--------------------------------------------
   0 Ni:    0.227490    1.038883
   1 S :   -0.227490    0.961117
Sum of atomic charges         :   -0.0000000

LOEWDIN ATOMIC CHARGES AND SPIN POPULATIONS
-------------------------------------------
   0 Ni:   -0.026234    1.136284
   1 S :    0.026234    0.863716

  Mayer bond orders larger than 0.100000
B(  0-Ni,  1-S ) :   2.2943

Dispersion correction           -0.001732115
FINAL SINGLE POINT ENERGY     -1906.644699501857

DIPOLE MOMENT
-------------
                                X             Y             Z
Electronic contribution:     -0.00000      -0.00000      -3.21047
Nuclear contribution   :      0.00000       0.00000       1.70320
                        -----------------------------------------
Total Dipole Moment    :     -0.00000      -0.00000      -1.50727
                        -----------------------------------------
Magnitude (a.u.)       :      1.50727
Magnitude (Debye)      :      3.83117

Rotational constants in cm-1:     0.000000     0.209451     0.209451
Rotational constants in MHz :     0.000000  6279.170942  6279.170942

                             ****ORCA TERMINATED NORMALLY****
TOTAL RUN TIME: 0 days 0 hours 0 minutes 8 seconds 481 msec
