                         Program Version 4.2.0 -  RELEASE  -
|  1> #
|  2> # 51_CuCl tpss/aug-cc-pvtz
|  3> #
|  4> ! tpss d3bj aug-cc-pvtz def2/j grid4 nofinalgrid
|  5>
|  6> *xyz 0 1
|  7>   Cu  0.00000000000000      0.00000000000000     -0.03459121817691
|  8>   Cl  0.00000000000000      0.00000000000000      2.03459121817691
|  9> *
| 10>
| 11> %pal
| 12> nprocs 24
| 13> end
| 14>
| 15>
| 16>                          ****END OF INPUT****

CARTESIAN COORDINATES (ANGSTROEM)
---------------------------------
  Cu     0.000000    0.000000   -0.034591
  Cl     0.000000    0.000000    2.034591

 Total Charge           Charge          ....    0
 Multiplicity           Mult            ....    1
 Number of Electrons    NEL             ....   46
 Basis Dimension        Dim             ....  143

ORBITAL ENERGIES
----------------

  NO   OCC          E(Eh)            E(eV)
   0   2.0000    -322.106763     -8764.9706
   1   2.0000    -100.982235     -2747.8663
   2   2.0000     -38.396889     -1044.8325
   3   2.0000     -33.614239      -914.6899
   4   2.0000     -33.614239      -914.6899
   5   2.0000     -33.614066      -914.6852
   6   2.0000      -9.206016      -250.5084
   7   2.0000      -6.983724      -190.0368
   8   2.0000      -6.978035      -189.8820
   9   2.0000      -6.978035      -189.8820
  10   2.0000      -4.179656      -113.7342
  11   2.0000      -2.695596       -73.3509
  12   2.0000      -2.688678       -73.1626
  13   2.0000      -2.688678       -73.1626
  14   2.0000      -0.709029       -19.2937
  15   2.0000      -0.325567        -8.8591
  16   2.0000      -0.279990        -7.6189
  17   2.0000      -0.279990        -7.6189
  18   2.0000      -0.237409        -6.4602
  19   2.0000      -0.237407        -6.4602
  20   2.0000      -0.225614        -6.1393
  21   2.0000      -0.220039        -5.9876
  22   2.0000      -0.220039        -5.9876
  23   0.0000      -0.135979        -3.7002
  24   0.0000      -0.019666        -0.5351
  25   0.0000      -0.019666        -0.5351
  26   0.0000       0.008077         0.2198
  27   0.0000       0.009463         0.2575

MULLIKEN ATOMIC CHARGES
-----------------------
   0 Cu:    0.512540
   1 Cl:   -0.512540
Sum of atomic charges:   -0.0000000

LOEWDIN ATOMIC CHARGES
----------------------
   0 Cu:    0.036678
   1 Cl:   -0.036678

  Mayer bond orders larger than 0.100000
B(  0-Cu,  1-Cl) :   1.0130

Dispersion correction           -0.001340999
FINAL SINGLE POINT ENERGY     -2100.880266557534

DIPOLE MOMENT
-------------
                                X             Y             Z
Electronic contribution:     -0.00000      -0.00000      -3.90562
Nuclear contribution   :      0.00000       0.00000       2.06219
                        -----------------------------------------
Total Dipole Moment    :     -0.00000      -0.00000      -1.84343
                        -----------------------------------------
Magnitude (a.u.)       :      1.84343
Magnitude (Debye)      :      4.68563

Rotational constants in cm-1:     0.000000     0.173013     0.173013
Rotational constants in MHz :     0.000000  5186.804112  5186.804112

                             ****ORCA TERMINATED NORMALLY****
TOTAL RUN TIME: 0 days 0 hours 0 minutes 7 seconds 230 msec
