                         Program Version 4.2.0 -  RELEASE  -
|  1> #
|  2> # 53_CuO tpss/aug-cc-pvtz
|  3> #
|  4> ! tpss d3bj aug-cc-pvtz def2/j grid4 nofinalgrid
|  5>
|  6> *xyz 0 2
|  7>   Cu  0.00000000000000      0.00000000000000      0.13870993735929
|  8>   O   0.00000000000000      0.00000000000000      1.86129006264071
|  9> *
| 10>
| 11> %pal
| 12> nprocs 24
| 13> end
| 14>
| 15>
| 16>                          ****END OF INPUT****

CARTESIAN COORDINATES (ANGSTROEM)
---------------------------------
  Cu     0.000000    0.000000    0.138710
  O      0.000000    0.000000    1.861290

 Total Charge           Charge          ....    0
 Multiplicity           Mult            ....    2
 Number of Electrons    NEL             ....   37
 Basis Dimension        Dim             ....  139

ORBITAL ENERGIES
----------------
                 SPIN UP ORBITALS
  NO   OCC          E(Eh)            E(eV)
   0   1.0000    -322.134824     -8765.7342
   1   1.0000     -38.434339     -1045.8515
   2   1.0000     -33.651974      -915.7168
   3   1.0000     -33.651646      -915.7078
   4   1.0000     -33.648910      -915.6334
   5   1.0000     -18.899645      -514.2855
   6   1.0000      -4.215487      -114.7092
   7   1.0000      -2.736162       -74.4548
   8   1.0000      -2.727644       -74.2230
   9   1.0000      -2.713149       -73.8285
  10   1.0000      -0.843591       -22.9553
  11   1.0000      -0.332894        -9.0585
  12   1.0000      -0.332333        -9.0433
  13   1.0000      -0.296622        -8.0715
  14   1.0000      -0.261849        -7.1253
  15   1.0000      -0.261679        -7.1206
  16   1.0000      -0.249121        -6.7789
  17   1.0000      -0.227700        -6.1960
  18   1.0000      -0.211303        -5.7498
  19   0.0000      -0.136273        -3.7082
  20   0.0000      -0.018849        -0.5129
  21   0.0000      -0.014547        -0.3958
  22   0.0000       0.009257         0.2519
  23   0.0000       0.012609         0.3431

                 SPIN DOWN ORBITALS
  NO   OCC          E(Eh)            E(eV)
   0   1.0000    -322.134795     -8765.7334
   1   1.0000     -38.429888     -1045.7304
   2   1.0000     -33.647429      -915.5931
   3   1.0000     -33.647145      -915.5854
   4   1.0000     -33.647062      -915.5831
   5   1.0000     -18.877716      -513.6888
   6   1.0000      -4.205824      -114.4463
   7   1.0000      -2.723205       -74.1022
   8   1.0000      -2.715714       -73.8983
   9   1.0000      -2.709617       -73.7324
  10   1.0000      -0.788412       -21.4538
  11   1.0000      -0.318122        -8.6565
  12   1.0000      -0.289029        -7.8649
  13   1.0000      -0.278637        -7.5821
  14   1.0000      -0.257354        -7.0030
  15   1.0000      -0.257180        -6.9982
  16   1.0000      -0.220835        -6.0092
  17   1.0000      -0.198412        -5.3991
  18   0.0000      -0.166327        -4.5260
  19   0.0000      -0.130751        -3.5579
  20   0.0000      -0.015957        -0.4342
  21   0.0000      -0.012770        -0.3475
  22   0.0000       0.008250         0.2245

MULLIKEN ATOMIC CHARGES AND SPIN POPULATIONS
--------------------------------------------
   0 Cu:    0.595200    0.121358
   1 O :   -0.595200    0.878642
Sum of atomic charges         :   -0.0000000

LOEWDIN ATOMIC CHARGES AND SPIN POPULATIONS
-------------------------------------------
   0 Cu:    0.406531    0.184991
   1 O :   -0.406531    0.815009

  Mayer bond orders larger than 0.100000
B(  0-Cu,  1-O ) :   1.2429

Dispersion correction           -0.000657679
FINAL SINGLE POINT ENERGY     -1715.782920722774

DIPOLE MOMENT
-------------
                                X             Y             Z
Electronic contribution:     -0.00000      -0.00000      -3.54278
Nuclear contribution   :      0.00000       0.00000       1.81807
                        -----------------------------------------
Total Dipole Moment    :     -0.00000      -0.00000      -1.72471
                        -----------------------------------------
Magnitude (a.u.)       :      1.72471
Magnitude (Debye)      :      4.38386

Rotational constants in cm-1:     0.000000     0.444492     0.444492
Rotational constants in MHz :     0.000000 13325.547784 13325.547784

                             ****ORCA TERMINATED NORMALLY****
TOTAL RUN TIME: 0 days 0 hours 0 minutes 9 seconds 470 msec
