                         Program Version 4.2.0 -  RELEASE  -
|  1> #
|  2> # 60_ZnS tpss/aug-cc-pvtz
|  3> #
|  4> ! tpss d3bj aug-cc-pvtz def2/j grid4 nofinalgrid
|  5>
|  6> *xyz 0 1
|  7>   Zn  0.00000000000000      0.00000000000000     -0.02757018403008
|  8>   S   0.00000000000000      0.00000000000000      2.02757018403008
|  9> *
| 10>
| 11> %pal
| 12> nprocs 24
| 13> end
| 14>
| 15>
| 16>                          ****END OF INPUT****

CARTESIAN COORDINATES (ANGSTROEM)
---------------------------------
  Zn     0.000000    0.000000   -0.027570
  S      0.000000    0.000000    2.027570

 Total Charge           Charge          ....    0
 Multiplicity           Mult            ....    1
 Number of Electrons    NEL             ....   46
 Basis Dimension        Dim             ....  143

ORBITAL ENERGIES
----------------

  NO   OCC          E(Eh)            E(eV)
   0   2.0000    -346.359712     -9424.9269
   1   2.0000     -88.356333     -2404.2981
   2   2.0000     -41.816506     -1137.8850
   3   2.0000     -36.808581     -1001.6124
   4   2.0000     -36.808581     -1001.6124
   5   2.0000     -36.807260     -1001.5765
   6   2.0000      -7.711476      -209.8399
   7   2.0000      -5.695836      -154.9916
   8   2.0000      -5.685446      -154.7088
   9   2.0000      -5.685446      -154.7088
  10   2.0000      -4.726364      -128.6109
  11   2.0000      -3.135845       -85.3307
  12   2.0000      -3.131881       -85.2228
  13   2.0000      -3.131881       -85.2228
  14   2.0000      -0.603826       -16.4309
  15   2.0000      -0.470064       -12.7911
  16   2.0000      -0.470064       -12.7911
  17   2.0000      -0.465257       -12.6603
  18   2.0000      -0.463116       -12.6020
  19   2.0000      -0.463112       -12.6019
  20   2.0000      -0.293341        -7.9822
  21   2.0000      -0.203334        -5.5330
  22   2.0000      -0.203334        -5.5330
  23   0.0000      -0.175415        -4.7733
  24   0.0000      -0.043892        -1.1943
  25   0.0000      -0.043892        -1.1943
  26   0.0000      -0.002044        -0.0556
  27   0.0000       0.006163         0.1677

MULLIKEN ATOMIC CHARGES
-----------------------
   0 Zn:    0.500695
   1 S :   -0.500695
Sum of atomic charges:   -0.0000000

LOEWDIN ATOMIC CHARGES
----------------------
   0 Zn:    0.312127
   1 S :   -0.312127

  Mayer bond orders larger than 0.100000
B(  0-Zn,  1-S ) :   1.6846

Dispersion correction           -0.001732937
FINAL SINGLE POINT ENERGY     -2177.652980101821

DIPOLE MOMENT
-------------
                                X             Y             Z
Electronic contribution:     -0.00000      -0.00000      -5.42782
Nuclear contribution   :      0.00000       0.00000       3.35914
                        -----------------------------------------
Total Dipole Moment    :     -0.00000      -0.00000      -2.06869
                        -----------------------------------------
Magnitude (a.u.)       :      2.06869
Magnitude (Debye)      :      5.25819

Rotational constants in cm-1:     0.000000     0.185542     0.185542
Rotational constants in MHz :     0.000000  5562.415993  5562.415993

                             ****ORCA TERMINATED NORMALLY****
TOTAL RUN TIME: 0 days 0 hours 0 minutes 7 seconds 563 msec
