                         Program Version 4.2.0 -  RELEASE  -
|  1> #
|  2> # 61_Sc tpss/aug-cc-pvtz
|  3> #
|  4> ! tpss d3bj aug-cc-pvtz def2/j grid4 nofinalgrid
|  5>
|  6> *xyz 0 2
|  7> Sc 0.0 0.0 0.0
|  8> *
|  9>
| 10> %pal
| 11> nprocs 24
| 12> end
| 13>
| 14>
| 15>                          ****END OF INPUT****

CARTESIAN COORDINATES (ANGSTROEM)
---------------------------------
  Sc     0.000000    0.000000    0.000000

 Total Charge           Charge          ....    0
 Multiplicity           Mult            ....    2
 Number of Electrons    NEL             ....   21
 Basis Dimension        Dim             ....   93

ORBITAL ENERGIES
----------------
                 SPIN UP ORBITALS
  NO   OCC          E(Eh)            E(eV)
   0   1.0000    -161.032326     -4381.9124
   1   1.0000     -17.314950      -471.1637
   2   1.0000     -14.258633      -387.9971
   3   1.0000     -14.251449      -387.8016
   4   1.0000     -14.251328      -387.7983
   5   1.0000      -2.008010       -54.6407
   6   1.0000      -1.231054       -33.4987
   7   1.0000      -1.225237       -33.3404
   8   1.0000      -1.225121       -33.3372
   9   1.0000      -0.150925        -4.1069
  10   1.0000      -0.134186        -3.6514
  11   0.0000      -0.100624        -2.7381
  12   0.0000      -0.097636        -2.6568
  13   0.0000      -0.097212        -2.6453
  14   0.0000      -0.081101        -2.2069
  15   0.0000      -0.055402        -1.5076

                 SPIN DOWN ORBITALS
  NO   OCC          E(Eh)            E(eV)
   0   1.0000    -161.032325     -4381.9123
   1   1.0000     -17.307998      -470.9746
   2   1.0000     -14.257617      -387.9695
   3   1.0000     -14.243625      -387.5887
   4   1.0000     -14.243416      -387.5831
   5   1.0000      -1.983707       -53.9794
   6   1.0000      -1.225405       -33.3450
   7   1.0000      -1.190502       -32.3952
   8   1.0000      -1.189924       -32.3795
   9   1.0000      -0.142546        -3.8789
  10   0.0000      -0.092791        -2.5250
  11   0.0000      -0.088158        -2.3989
  12   0.0000      -0.088053        -2.3960
  13   0.0000      -0.072292        -1.9672
  14   0.0000      -0.060383        -1.6431

MULLIKEN ATOMIC CHARGES AND SPIN POPULATIONS
--------------------------------------------
   0 Sc:   -0.000000    1.000000
Sum of atomic charges         :   -0.0000000

LOEWDIN ATOMIC CHARGES AND SPIN POPULATIONS
-------------------------------------------
   0 Sc:   -0.000000    1.000000

Dispersion correction            0.000000000
FINAL SINGLE POINT ENERGY      -760.644761142453

DIPOLE MOMENT
-------------
                                X             Y             Z
Electronic contribution:      0.00000       0.00000      -0.00000
Nuclear contribution   :      0.00000       0.00000       0.00000
                        -----------------------------------------
Total Dipole Moment    :      0.00000       0.00000      -0.00000
                        -----------------------------------------
Magnitude (a.u.)       :      0.00000
Magnitude (Debye)      :      0.00000

Rotational constants in cm-1:     0.000000     0.000000     0.000000
Rotational constants in MHz :     0.000000     0.000000     0.000000

                             ****ORCA TERMINATED NORMALLY****
TOTAL RUN TIME: 0 days 0 hours 0 minutes 7 seconds 932 msec
