                         Program Version 4.2.0 -  RELEASE  -
|  1> #
|  2> # 63_V tpss/aug-cc-pvtz
|  3> #
|  4> ! tpss d3bj aug-cc-pvtz def2/j grid4 nofinalgrid
|  5>
|  6> *xyz 0 4
|  7> V 0.0 0.0 0.0
|  8> *
|  9>
| 10> %pal
| 11> nprocs 24
| 12> end
| 13>
| 14>
| 15>                          ****END OF INPUT****

CARTESIAN COORDINATES (ANGSTROEM)
---------------------------------
  V      0.000000    0.000000    0.000000

 Total Charge           Charge          ....    0
 Multiplicity           Mult            ....    4
 Number of Electrons    NEL             ....   23
 Basis Dimension        Dim             ....   93

ORBITAL ENERGIES
----------------
                 SPIN UP ORBITALS
  NO   OCC          E(Eh)            E(eV)
   0   1.0000    -196.126610     -5336.8764
   1   1.0000     -21.900924      -595.9544
   2   1.0000     -18.416491      -501.1382
   3   1.0000     -18.416365      -501.1348
   4   1.0000     -18.416040      -501.1259
   5   1.0000      -2.547970       -69.3338
   6   1.0000      -1.607986       -43.7555
   7   1.0000      -1.607864       -43.7522
   8   1.0000      -1.596655       -43.4472
   9   1.0000      -0.197341        -5.3699
  10   1.0000      -0.191100        -5.2001
  11   1.0000      -0.190791        -5.1917
  12   1.0000      -0.168243        -4.5781
  13   0.0000      -0.144119        -3.9217
  14   0.0000      -0.143859        -3.9146
  15   0.0000      -0.053158        -1.4465
  16   0.0000      -0.042759        -1.1635
  17   0.0000      -0.042419        -1.1543

                 SPIN DOWN ORBITALS
  NO   OCC          E(Eh)            E(eV)
   0   1.0000    -196.126572     -5336.8754
   1   1.0000     -21.865684      -594.9955
   2   1.0000     -18.389320      -500.3988
   3   1.0000     -18.389013      -500.3905
   4   1.0000     -18.385538      -500.2959
   5   1.0000      -2.443025       -66.4781
   6   1.0000      -1.501819       -40.8666
   7   1.0000      -1.501179       -40.8492
   8   1.0000      -1.490751       -40.5654
   9   1.0000      -0.145731        -3.9655
  10   0.0000      -0.110623        -3.0102
  11   0.0000      -0.086798        -2.3619
  12   0.0000      -0.081823        -2.2265
  13   0.0000      -0.067912        -1.8480
  14   0.0000      -0.067727        -1.8430

MULLIKEN ATOMIC CHARGES AND SPIN POPULATIONS
--------------------------------------------
   0 V :   -0.000000    3.000000
Sum of atomic charges         :   -0.0000000

LOEWDIN ATOMIC CHARGES AND SPIN POPULATIONS
-------------------------------------------
   0 V :    0.000000    3.000000

Dispersion correction            0.000000000
FINAL SINGLE POINT ENERGY      -943.933078389889

DIPOLE MOMENT
-------------
                                X             Y             Z
Electronic contribution:      0.00000       0.00000       0.00000
Nuclear contribution   :      0.00000       0.00000       0.00000
                        -----------------------------------------
Total Dipole Moment    :      0.00000       0.00000       0.00000
                        -----------------------------------------
Magnitude (a.u.)       :      0.00000
Magnitude (Debye)      :      0.00000

Rotational constants in cm-1:     0.000000     0.000000     0.000000
Rotational constants in MHz :     0.000000     0.000000     0.000000

                             ****ORCA TERMINATED NORMALLY****
TOTAL RUN TIME: 0 days 0 hours 0 minutes 12 seconds 577 msec
