                         Program Version 4.2.0 -  RELEASE  -
|  1> #
|  2> # 64_Cr tpss/aug-cc-pvtz
|  3> #
|  4> ! tpss d3bj aug-cc-pvtz def2/j grid4 nofinalgrid
|  5>
|  6> *xyz 0 7
|  7> Cr 0.0 0.0 0.0
|  8> *
|  9>
| 10> %pal
| 11> nprocs 24
| 12> end
| 13>
| 14>
| 15>                          ****END OF INPUT****

CARTESIAN COORDINATES (ANGSTROEM)
---------------------------------
  Cr     0.000000    0.000000    0.000000

 Total Charge           Charge          ....    0
 Multiplicity           Mult            ....    7
 Number of Electrons    NEL             ....   24
 Basis Dimension        Dim             ....   93

ORBITAL ENERGIES
----------------
                 SPIN UP ORBITALS
  NO   OCC          E(Eh)            E(eV)
   0   1.0000    -214.865270     -5846.7812
   1   1.0000     -24.256283      -660.0470
   2   1.0000     -20.558960      -559.4377
   3   1.0000     -20.558960      -559.4377
   4   1.0000     -20.558960      -559.4377
   5   1.0000      -2.730317       -74.2957
   6   1.0000      -1.705752       -46.4159
   7   1.0000      -1.705752       -46.4159
   8   1.0000      -1.705752       -46.4159
   9   1.0000      -0.158934        -4.3248
  10   1.0000      -0.138408        -3.7663
  11   1.0000      -0.138408        -3.7663
  12   1.0000      -0.138408        -3.7663
  13   1.0000      -0.138408        -3.7663
  14   1.0000      -0.138408        -3.7663
  15   0.0000      -0.040836        -1.1112
  16   0.0000      -0.040836        -1.1112
  17   0.0000      -0.040836        -1.1112
  18   0.0000       0.001101         0.0300
  19   0.0000       0.023714         0.6453

                 SPIN DOWN ORBITALS
  NO   OCC          E(Eh)            E(eV)
   0   1.0000    -214.864162     -5846.7511
   1   1.0000     -24.200157      -658.5198
   2   1.0000     -20.513621      -558.2040
   3   1.0000     -20.513621      -558.2040
   4   1.0000     -20.513621      -558.2040
   5   1.0000      -2.562910       -69.7403
   6   1.0000      -1.536127       -41.8001
   7   1.0000      -1.536127       -41.8001
   8   1.0000      -1.536127       -41.8001
   9   0.0000      -0.053275        -1.4497
  10   0.0000       0.015285         0.4159
  11   0.0000       0.015285         0.4159
  12   0.0000       0.015285         0.4159
  13   0.0000       0.015285         0.4159

MULLIKEN ATOMIC CHARGES AND SPIN POPULATIONS
--------------------------------------------
   0 Cr:   -0.000000    6.000000
Sum of atomic charges         :   -0.0000000

LOEWDIN ATOMIC CHARGES AND SPIN POPULATIONS
-------------------------------------------
   0 Cr:   -0.000000    6.000000

Dispersion correction            0.000000000
FINAL SINGLE POINT ENERGY     -1044.485965586655

DIPOLE MOMENT
-------------
                                X             Y             Z
Electronic contribution:      0.00000      -0.00000      -0.00000
Nuclear contribution   :      0.00000       0.00000       0.00000
                        -----------------------------------------
Total Dipole Moment    :      0.00000      -0.00000      -0.00000
                        -----------------------------------------
Magnitude (a.u.)       :      0.00000
Magnitude (Debye)      :      0.00000

Rotational constants in cm-1:     0.000000     0.000000     0.000000
Rotational constants in MHz :     0.000000     0.000000     0.000000

                             ****ORCA TERMINATED NORMALLY****
TOTAL RUN TIME: 0 days 0 hours 0 minutes 5 seconds 963 msec
