                         Program Version 4.2.0 -  RELEASE  -
|  1> #
|  2> # 67_Co tpss/aug-cc-pvtz
|  3> #
|  4> ! tpss d3bj aug-cc-pvtz def2/j grid4 nofinalgrid
|  5>
|  6> *xyz 0 4
|  7> Co 0.0 0.0 0.0
|  8> *
|  9>
| 10> %pal
| 11> nprocs 24
| 12> end
| 13>
| 14>
| 15>                          ****END OF INPUT****

CARTESIAN COORDINATES (ANGSTROEM)
---------------------------------
  Co     0.000000    0.000000    0.000000

 Total Charge           Charge          ....    0
 Multiplicity           Mult            ....    4
 Number of Electrons    NEL             ....   27
 Basis Dimension        Dim             ....   93

ORBITAL ENERGIES
----------------
                 SPIN UP ORBITALS
  NO   OCC          E(Eh)            E(eV)
   0   1.0000    -276.595254     -7526.5395
   1   1.0000     -32.369568      -880.8207
   2   1.0000     -28.025240      -762.6056
   3   1.0000     -28.025014      -762.5994
   4   1.0000     -28.025011      -762.5993
   5   1.0000      -3.556941       -96.7893
   6   1.0000      -2.261329       -61.5339
   7   1.0000      -2.261231       -61.5312
   8   1.0000      -2.261053       -61.5264
   9   1.0000      -0.206776        -5.6267
  10   1.0000      -0.206669        -5.6237
  11   1.0000      -0.171484        -4.6663
  12   1.0000      -0.167869        -4.5680
  13   1.0000      -0.167637        -4.5616
  14   1.0000      -0.167439        -4.5562
  15   0.0000      -0.035589        -0.9684
  16   0.0000      -0.035285        -0.9602
  17   0.0000      -0.034994        -0.9522
  18   0.0000       0.003747         0.1020
  19   0.0000       0.032881         0.8947

                 SPIN DOWN ORBITALS
  NO   OCC          E(Eh)            E(eV)
   0   1.0000    -276.593871     -7526.5019
   1   1.0000     -32.337778      -879.9557
   2   1.0000     -27.999336      -761.9007
   3   1.0000     -27.999002      -761.8916
   4   1.0000     -27.998803      -761.8862
   5   1.0000      -3.474437       -94.5442
   6   1.0000      -2.178181       -59.2713
   7   1.0000      -2.177762       -59.2599
   8   1.0000      -2.177477       -59.2522
   9   1.0000      -0.129490        -3.5236
  10   1.0000      -0.129458        -3.5227
  11   1.0000      -0.129436        -3.5221
  12   0.0000      -0.119761        -3.2589
  13   0.0000      -0.063766        -1.7352
  14   0.0000      -0.063614        -1.7310
  15   0.0000      -0.007508        -0.2043
  16   0.0000      -0.006867        -0.1869

MULLIKEN ATOMIC CHARGES AND SPIN POPULATIONS
--------------------------------------------
   0 Co:   -0.000000    3.000000
Sum of atomic charges         :   -0.0000000

LOEWDIN ATOMIC CHARGES AND SPIN POPULATIONS
-------------------------------------------
   0 Co:   -0.000000    3.000000

Dispersion correction            0.000000000
FINAL SINGLE POINT ENERGY     -1382.796524676846

DIPOLE MOMENT
-------------
                                X             Y             Z
Electronic contribution:      0.00000       0.00000       0.00000
Nuclear contribution   :      0.00000       0.00000       0.00000
                        -----------------------------------------
Total Dipole Moment    :      0.00000       0.00000       0.00000
                        -----------------------------------------
Magnitude (a.u.)       :      0.00000
Magnitude (Debye)      :      0.00000

Rotational constants in cm-1:     0.000000     0.000000     0.000000
Rotational constants in MHz :     0.000000     0.000000     0.000000

                             ****ORCA TERMINATED NORMALLY****
TOTAL RUN TIME: 0 days 0 hours 0 minutes 9 seconds 818 msec
