                         Program Version 4.2.0 -  RELEASE  -
|  1> #
|  2> # 70_Zn tpss/aug-cc-pvtz
|  3> #
|  4> ! tpss d3bj aug-cc-pvtz def2/j grid4 nofinalgrid
|  5>
|  6> *xyz 0 1
|  7> Zn 0.0 0.0 0.0
|  8> *
|  9>
| 10> %pal
| 11> nprocs 24
| 12> end
| 13>
| 14>
| 15>                          ****END OF INPUT****

CARTESIAN COORDINATES (ANGSTROEM)
---------------------------------
  Zn     0.000000    0.000000    0.000000

 Total Charge           Charge          ....    0
 Multiplicity           Mult            ....    1
 Number of Electrons    NEL             ....   30
 Basis Dimension        Dim             ....   93

ORBITAL ENERGIES
----------------

  NO   OCC          E(Eh)            E(eV)
   0   2.0000    -346.281623     -9422.8020
   1   2.0000     -41.738402     -1135.7596
   2   2.0000     -36.730035      -999.4751
   3   2.0000     -36.730035      -999.4751
   4   2.0000     -36.730035      -999.4751
   5   2.0000      -4.645664      -126.4150
   6   2.0000      -3.052625       -83.0661
   7   2.0000      -3.052625       -83.0661
   8   2.0000      -3.052625       -83.0661
   9   2.0000      -0.386771       -10.5246
  10   2.0000      -0.386771       -10.5246
  11   2.0000      -0.386771       -10.5246
  12   2.0000      -0.386771       -10.5246
  13   2.0000      -0.386771       -10.5246
  14   2.0000      -0.213131        -5.7996
  15   0.0000      -0.038818        -1.0563
  16   0.0000      -0.038818        -1.0563
  17   0.0000      -0.038818        -1.0563
  18   0.0000       0.007005         0.1906
  19   0.0000       0.036463         0.9922

MULLIKEN ATOMIC CHARGES
-----------------------
   0 Zn:   -0.000000
Sum of atomic charges:   -0.0000000

LOEWDIN ATOMIC CHARGES
----------------------
   0 Zn:   -0.000000

Dispersion correction            0.000000000
FINAL SINGLE POINT ENERGY     -1779.446585745657

DIPOLE MOMENT
-------------
                                X             Y             Z
Electronic contribution:      0.00000       0.00000       0.00000
Nuclear contribution   :      0.00000       0.00000       0.00000
                        -----------------------------------------
Total Dipole Moment    :      0.00000       0.00000       0.00000
                        -----------------------------------------
Magnitude (a.u.)       :      0.00000
Magnitude (Debye)      :      0.00000

Rotational constants in cm-1:     0.000000     0.000000     0.000000
Rotational constants in MHz :     0.000000     0.000000     0.000000

                             ****ORCA TERMINATED NORMALLY****
TOTAL RUN TIME: 0 days 0 hours 0 minutes 5 seconds 489 msec
