                         Program Version 4.2.0 -  RELEASE  -
|  1> #
|  2> # 72_F tpss/aug-cc-pvtz
|  3> #
|  4> ! tpss d3bj aug-cc-pvtz def2/j grid4 nofinalgrid
|  5>
|  6> *xyz 0 2
|  7> F 0.0 0.0 0.0
|  8> *
|  9>
| 10> %pal
| 11> nprocs 24
| 12> end
| 13>
| 14>
| 15>                          ****END OF INPUT****

CARTESIAN COORDINATES (ANGSTROEM)
---------------------------------
  F      0.000000    0.000000    0.000000

 Total Charge           Charge          ....    0
 Multiplicity           Mult            ....    2
 Number of Electrons    NEL             ....    9
 Basis Dimension        Dim             ....   46

ORBITAL ENERGIES
----------------
                 SPIN UP ORBITALS
  NO   OCC          E(Eh)            E(eV)
   0   1.0000     -24.517334      -667.1506
   1   1.0000      -1.154404       -31.4129
   2   1.0000      -0.503162       -13.6917
   3   1.0000      -0.411388       -11.1944
   4   1.0000      -0.411388       -11.1944
   5   0.0000       0.080851         2.2001
   6   0.0000       0.111937         3.0460
   7   0.0000       0.120239         3.2719
   8   0.0000       0.120239         3.2719
   9   0.0000       0.669685        18.2231

                 SPIN DOWN ORBITALS
  NO   OCC          E(Eh)            E(eV)
   0   1.0000     -24.486549      -666.3129
   1   1.0000      -1.073962       -29.2240
   2   1.0000      -0.385325       -10.4852
   3   1.0000      -0.385325       -10.4852
   4   0.0000      -0.323090        -8.7917
   5   0.0000       0.090225         2.4552
   6   0.0000       0.122039         3.3208
   7   0.0000       0.122039         3.3208
   8   0.0000       0.131544         3.5795

MULLIKEN ATOMIC CHARGES AND SPIN POPULATIONS
--------------------------------------------
   0 F :    0.000000    1.000000
Sum of atomic charges         :    0.0000000

LOEWDIN ATOMIC CHARGES AND SPIN POPULATIONS
-------------------------------------------
   0 F :    0.000000    1.000000

Dispersion correction            0.000000000
FINAL SINGLE POINT ENERGY       -99.769280934371

DIPOLE MOMENT
-------------
                                X             Y             Z
Electronic contribution:     -0.00000      -0.00000       0.00000
Nuclear contribution   :      0.00000       0.00000       0.00000
                        -----------------------------------------
Total Dipole Moment    :     -0.00000      -0.00000       0.00000
                        -----------------------------------------
Magnitude (a.u.)       :      0.00000
Magnitude (Debye)      :      0.00000

Rotational constants in cm-1:     0.000000     0.000000     0.000000
Rotational constants in MHz :     0.000000     0.000000     0.000000

                             ****ORCA TERMINATED NORMALLY****
TOTAL RUN TIME: 0 days 0 hours 0 minutes 2 seconds 499 msec
