                         Program Version 4.2.0 -  RELEASE  -
|  1> #
|  2> # 74_Br tpss/aug-cc-pvtz
|  3> #
|  4> ! tpss d3bj aug-cc-pvtz def2/j grid4 nofinalgrid
|  5>
|  6> *xyz 0 2
|  7> Br 0.0 0.0 0.0
|  8> *
|  9>
| 10> %pal
| 11> nprocs 24
| 12> end
| 13>
| 14>
| 15>                          ****END OF INPUT****

CARTESIAN COORDINATES (ANGSTROEM)
---------------------------------
  Br     0.000000    0.000000    0.000000

 Total Charge           Charge          ....    0
 Multiplicity           Mult            ....    2
 Number of Electrons    NEL             ....   35
 Basis Dimension        Dim             ....   59

ORBITAL ENERGIES
----------------
                 SPIN UP ORBITALS
  NO   OCC          E(Eh)            E(eV)
   0   1.0000    -481.776177    -13109.7963
   1   1.0000     -61.992695     -1686.9070
   2   1.0000     -55.828883     -1519.1811
   3   1.0000     -55.823508     -1519.0349
   4   1.0000     -55.823508     -1519.0349
   5   1.0000      -8.519051      -231.8152
   6   1.0000      -6.369900      -173.3338
   7   1.0000      -6.348264      -172.7451
   8   1.0000      -6.348264      -172.7451
   9   1.0000      -2.535577       -68.9966
  10   1.0000      -2.530132       -68.8484
  11   1.0000      -2.530132       -68.8484
  12   1.0000      -2.513759       -68.4029
  13   1.0000      -2.513759       -68.4029
  14   1.0000      -0.740408       -20.1475
  15   1.0000      -0.341118        -9.2823
  16   1.0000      -0.292228        -7.9519
  17   1.0000      -0.292228        -7.9519
  18   0.0000       0.008700         0.2367
  19   0.0000       0.039897         1.0856
  20   0.0000       0.046251         1.2585
  21   0.0000       0.046251         1.2586
  22   0.0000       0.130355         3.5471

                 SPIN DOWN ORBITALS
  NO   OCC          E(Eh)            E(eV)
   0   1.0000    -481.774053    -13109.7385
   1   1.0000     -61.992070     -1686.8900
   2   1.0000     -55.825183     -1519.0805
   3   1.0000     -55.822792     -1519.0154
   4   1.0000     -55.822792     -1519.0154
   5   1.0000      -8.516174      -231.7369
   6   1.0000      -6.362856      -173.1421
   7   1.0000      -6.346880      -172.7074
   8   1.0000      -6.346880      -172.7074
   9   1.0000      -2.527597       -68.7794
  10   1.0000      -2.524202       -68.6870
  11   1.0000      -2.524202       -68.6870
  12   1.0000      -2.512796       -68.3766
  13   1.0000      -2.512796       -68.3766
  14   1.0000      -0.702062       -19.1041
  15   1.0000      -0.279130        -7.5955
  16   1.0000      -0.279130        -7.5955
  17   0.0000      -0.262633        -7.1466
  18   0.0000       0.015546         0.4230
  19   0.0000       0.047834         1.3016
  20   0.0000       0.047834         1.3016
  21   0.0000       0.051253         1.3947

MULLIKEN ATOMIC CHARGES AND SPIN POPULATIONS
--------------------------------------------
   0 Br:    0.000000    1.000000
Sum of atomic charges         :    0.0000000

LOEWDIN ATOMIC CHARGES AND SPIN POPULATIONS
-------------------------------------------
   0 Br:   -0.000000    1.000000

Dispersion correction            0.000000000
FINAL SINGLE POINT ENERGY     -2574.064499275809

DIPOLE MOMENT
-------------
                                X             Y             Z
Electronic contribution:      0.00000      -0.00000      -0.00000
Nuclear contribution   :      0.00000       0.00000       0.00000
                        -----------------------------------------
Total Dipole Moment    :      0.00000      -0.00000      -0.00000
                        -----------------------------------------
Magnitude (a.u.)       :      0.00000
Magnitude (Debye)      :      0.00000

Rotational constants in cm-1:     0.000000     0.000000     0.000000
Rotational constants in MHz :     0.000000     0.000000     0.000000

                             ****ORCA TERMINATED NORMALLY****
TOTAL RUN TIME: 0 days 0 hours 0 minutes 3 seconds 378 msec
