                         Program Version 4.2.0 -  RELEASE  -
|  1> #
|  2> # 75_O tpss/aug-cc-pvtz
|  3> #
|  4> ! tpss d3bj aug-cc-pvtz def2/j grid4 nofinalgrid
|  5>
|  6> *xyz 0 3
|  7> O 0.0 0.0 0.0
|  8> *
|  9>
| 10> %pal
| 11> nprocs 24
| 12> end
| 13>
| 14>
| 15>                          ****END OF INPUT****

CARTESIAN COORDINATES (ANGSTROEM)
---------------------------------
  O      0.000000    0.000000    0.000000

 Total Charge           Charge          ....    0
 Multiplicity           Mult            ....    3
 Number of Electrons    NEL             ....    8
 Basis Dimension        Dim             ....   46

ORBITAL ENERGIES
----------------
                 SPIN UP ORBITALS
  NO   OCC          E(Eh)            E(eV)
   0   1.0000     -19.036604      -518.0123
   1   1.0000      -0.950347       -25.8603
   2   1.0000      -0.406352       -11.0574
   3   1.0000      -0.406352       -11.0574
   4   1.0000      -0.326568        -8.8864
   5   0.0000       0.054975         1.4959
   6   0.0000       0.086625         2.3572
   7   0.0000       0.086625         2.3572
   8   0.0000       0.094279         2.5655
   9   0.0000       0.473946        12.8967

                 SPIN DOWN ORBITALS
  NO   OCC          E(Eh)            E(eV)
   0   1.0000     -18.982979      -516.5531
   1   1.0000      -0.805040       -21.9062
   2   1.0000      -0.290864        -7.9148
   3   0.0000      -0.215515        -5.8645
   4   0.0000      -0.215515        -5.8645
   5   0.0000       0.075889         2.0650
   6   0.0000       0.098317         2.6753
   7   0.0000       0.113878         3.0988

MULLIKEN ATOMIC CHARGES AND SPIN POPULATIONS
--------------------------------------------
   0 O :    0.000000    2.000000
Sum of atomic charges         :    0.0000000

LOEWDIN ATOMIC CHARGES AND SPIN POPULATIONS
-------------------------------------------
   0 O :   -0.000000    2.000000

Dispersion correction            0.000000000
FINAL SINGLE POINT ENERGY       -75.102990763910

DIPOLE MOMENT
-------------
                                X             Y             Z
Electronic contribution:     -0.00000       0.00000      -0.00000
Nuclear contribution   :      0.00000       0.00000       0.00000
                        -----------------------------------------
Total Dipole Moment    :     -0.00000       0.00000      -0.00000
                        -----------------------------------------
Magnitude (a.u.)       :      0.00000
Magnitude (Debye)      :      0.00000

Rotational constants in cm-1:     0.000000     0.000000     0.000000
Rotational constants in MHz :     0.000000     0.000000     0.000000

                             ****ORCA TERMINATED NORMALLY****
TOTAL RUN TIME: 0 days 0 hours 0 minutes 2 seconds 478 msec
