                         Program Version 4.2.0 -  RELEASE  -
|  1> #
|  2> # 01_ScH tpss/aug-cc-pvtz
|  3> #
|  4> ! tpss d3bj aug-cc-pvtz def2/j grid4 nofinalgrid
|  5>
|  6> *xyz 0 1
|  7>   Sc  0.00000000000000      0.00000000000000      0.11546868383427
|  8>   H   0.00000000000000      0.00000000000000      1.88453131616573
|  9> *
| 10>
| 11> %pal
| 12> nprocs 24
| 13> end
| 14>
| 15>
| 16>                          ****END OF INPUT****

CARTESIAN COORDINATES (ANGSTROEM)
---------------------------------
  Sc     0.000000    0.000000    0.115469
  H      0.000000    0.000000    1.884531

 Total Charge           Charge          ....    0
 Multiplicity           Mult            ....    1
 Number of Electrons    NEL             ....   22
 Basis Dimension        Dim             ....  116

ORBITAL ENERGIES
----------------

  NO   OCC          E(Eh)            E(eV)
   0   2.0000    -161.071900     -4382.9892
   1   2.0000     -17.362899      -472.4685
   2   2.0000     -14.307242      -389.3198
   3   2.0000     -14.307242      -389.3198
   4   2.0000     -14.291859      -388.9012
   5   2.0000      -2.040174       -55.5160
   6   2.0000      -1.265286       -34.4302
   7   2.0000      -1.265286       -34.4302
   8   2.0000      -1.240663       -33.7602
   9   2.0000      -0.255163        -6.9433
  10   2.0000      -0.145144        -3.9496
  11   0.0000      -0.134477        -3.6593
  12   0.0000      -0.134474        -3.6592
  13   0.0000      -0.113153        -3.0790
  14   0.0000      -0.113153        -3.0790
  15   0.0000      -0.084800        -2.3075

MULLIKEN ATOMIC CHARGES
-----------------------
   0 Sc:    0.214133
   1 H :   -0.214133
Sum of atomic charges:    0.0000000

LOEWDIN ATOMIC CHARGES
----------------------
   0 Sc:    0.751781
   1 H :   -0.751781

  Mayer bond orders larger than 0.100000
B(  0-Sc,  1-H ) :   0.9883

Dispersion correction           -0.000601918
FINAL SINGLE POINT ENERGY      -761.236762720146

DIPOLE MOMENT
-------------
                                X             Y             Z
Electronic contribution:     -0.00000       0.00000      -2.46533
Nuclear contribution   :      0.00000       0.00000       1.73028
                        -----------------------------------------
Total Dipole Moment    :     -0.00000       0.00000      -0.73505
                        -----------------------------------------
Magnitude (a.u.)       :      0.73505
Magnitude (Debye)      :      1.86835

Rotational constants in cm-1:     0.000000     5.463605     5.463605
Rotational constants in MHz :     0.000000 163794.743331 163794.743331

                             ****ORCA TERMINATED NORMALLY****
TOTAL RUN TIME: 0 days 0 hours 0 minutes 12 seconds 101 msec
