                         Program Version 4.2.0 -  RELEASE  -
|  1> #
|  2> # 02_ScF tpss/aug-cc-pvtz
|  3> #
|  4> ! tpss d3bj aug-cc-pvtz def2/j grid4 nofinalgrid
|  5>
|  6> *xyz 0 1
|  7>   Sc  0.00000000000000      0.00000000000000      0.10357126289626
|  8>   F   0.00000000000000      0.00000000000000      1.89642873710374
|  9> *
| 10>
| 11> %pal
| 12> nprocs 24
| 13> end
| 14>
| 15>
| 16>                          ****END OF INPUT****

CARTESIAN COORDINATES (ANGSTROEM)
---------------------------------
  Sc     0.000000    0.000000    0.103571
  F      0.000000    0.000000    1.896429

 Total Charge           Charge          ....    0
 Multiplicity           Mult            ....    1
 Number of Electrons    NEL             ....   30
 Basis Dimension        Dim             ....  139

ORBITAL ENERGIES
----------------

  NO   OCC          E(Eh)            E(eV)
   0   2.0000    -161.097009     -4383.6725
   1   2.0000     -24.406967      -664.1473
   2   2.0000     -17.397247      -473.4032
   3   2.0000     -14.340190      -390.2164
   4   2.0000     -14.340190      -390.2164
   5   2.0000     -14.327977      -389.8841
   6   2.0000      -2.071477       -56.3678
   7   2.0000      -1.297564       -35.3085
   8   2.0000      -1.291524       -35.1442
   9   2.0000      -1.291524       -35.1442
  10   2.0000      -1.058170       -28.7943
  11   2.0000      -0.392154       -10.6711
  12   2.0000      -0.377153       -10.2629
  13   2.0000      -0.377153       -10.2629
  14   2.0000      -0.156497        -4.2585
  15   0.0000      -0.152983        -4.1629
  16   0.0000      -0.152983        -4.1629
  17   0.0000      -0.120891        -3.2896
  18   0.0000      -0.120891        -3.2896
  19   0.0000      -0.091116        -2.4794

MULLIKEN ATOMIC CHARGES
-----------------------
   0 Sc:    0.634307
   1 F :   -0.634307
Sum of atomic charges:    0.0000000

LOEWDIN ATOMIC CHARGES
----------------------
   0 Sc:    0.359580
   1 F :   -0.359580

  Mayer bond orders larger than 0.100000
B(  0-Sc,  1-F ) :   0.8722

Dispersion correction           -0.000614832
FINAL SINGLE POINT ENERGY      -860.643437350959

DIPOLE MOMENT
-------------
                                X             Y             Z
Electronic contribution:     -0.00000       0.00000      -0.98963
Nuclear contribution   :      0.00000       0.00000       0.30099
                        -----------------------------------------
Total Dipole Moment    :     -0.00000       0.00000      -0.68864
                        -----------------------------------------
Magnitude (a.u.)       :      0.68864
Magnitude (Debye)      :      1.75038

Rotational constants in cm-1:     0.000000     0.392705     0.392705
Rotational constants in MHz :     0.000000 11772.989606 11772.989606

                             ****ORCA TERMINATED NORMALLY****
TOTAL RUN TIME: 0 days 0 hours 0 minutes 6 seconds 690 msec
