                         Program Version 4.2.0 -  RELEASE  -
|  1> #
|  2> # 04_ScBr tpss/aug-cc-pvtz
|  3> #
|  4> ! tpss d3bj aug-cc-pvtz def2/j grid4 nofinalgrid
|  5>
|  6> *xyz 0 1
|  7>   Sc  0.00000000000000      0.00000000000000     -0.19342129509946
|  8>   Br  0.00000000000000      0.00000000000000      2.19342129509946
|  9> *
| 10>
| 11> %pal
| 12> nprocs 24
| 13> end
| 14>
| 15>
| 16>                          ****END OF INPUT****

CARTESIAN COORDINATES (ANGSTROEM)
---------------------------------
  Sc     0.000000    0.000000   -0.193421
  Br     0.000000    0.000000    2.193421

 Total Charge           Charge          ....    0
 Multiplicity           Mult            ....    1
 Number of Electrons    NEL             ....   56
 Basis Dimension        Dim             ....  152

ORBITAL ENERGIES
----------------

  NO   OCC          E(Eh)            E(eV)
   0   2.0000    -481.727489    -13108.4714
   1   2.0000    -161.084462     -4383.3311
   2   2.0000     -61.944980     -1685.6086
   3   2.0000     -55.777464     -1517.7820
   4   2.0000     -55.776730     -1517.7620
   5   2.0000     -55.776730     -1517.7620
   6   2.0000     -17.374942      -472.7962
   7   2.0000     -14.319271      -389.6472
   8   2.0000     -14.319271      -389.6472
   9   2.0000     -14.304062      -389.2333
  10   2.0000      -8.470903      -230.5050
  11   2.0000      -6.307694      -171.6411
  12   2.0000      -6.307004      -171.6223
  13   2.0000      -6.307004      -171.6223
  14   2.0000      -2.476875       -67.3992
  15   2.0000      -2.476486       -67.3886
  16   2.0000      -2.476486       -67.3886
  17   2.0000      -2.475715       -67.3676
  18   2.0000      -2.475652       -67.3659
  19   2.0000      -2.051848       -55.8336
  20   2.0000      -1.275104       -34.6973
  21   2.0000      -1.275104       -34.6973
  22   2.0000      -1.257975       -34.2313
  23   2.0000      -0.697692       -18.9852
  24   2.0000      -0.305341        -8.3088
  25   2.0000      -0.277151        -7.5417
  26   2.0000      -0.277151        -7.5417
  27   2.0000      -0.152206        -4.1417
  28   0.0000      -0.143186        -3.8963
  29   0.0000      -0.143186        -3.8963
  30   0.0000      -0.119989        -3.2651
  31   0.0000      -0.119989        -3.2651
  32   0.0000      -0.103076        -2.8048

MULLIKEN ATOMIC CHARGES
-----------------------
   0 Sc:    0.301568
   1 Br:   -0.301568
Sum of atomic charges:    0.0000000

LOEWDIN ATOMIC CHARGES
----------------------
   0 Sc:   -0.299925
   1 Br:    0.299925

  Mayer bond orders larger than 0.100000
B(  0-Sc,  1-Br) :   1.6629

Dispersion correction           -0.001943881
FINAL SINGLE POINT ENERGY     -3334.859636154549

DIPOLE MOMENT
-------------
                                X             Y             Z
Electronic contribution:     -0.00000      -0.00000       2.67663
Nuclear contribution   :      0.00000       0.00000      -3.76776
                        -----------------------------------------
Total Dipole Moment    :     -0.00000      -0.00000      -1.09114
                        -----------------------------------------
Magnitude (a.u.)       :      1.09114
Magnitude (Debye)      :      2.77345

Rotational constants in cm-1:     0.000000     0.102849     0.102849
Rotational constants in MHz :     0.000000  3083.332036  3083.332036

                             ****ORCA TERMINATED NORMALLY****
TOTAL RUN TIME: 0 days 0 hours 0 minutes 9 seconds 686 msec
