                         Program Version 4.2.0 -  RELEASE  -
|  1> #
|  2> # 07_TiH tpss/aug-cc-pvtz
|  3> #
|  4> ! tpss d3bj aug-cc-pvtz def2/j grid4 nofinalgrid
|  5>
|  6> *xyz 0 4
|  7>   Ti  0.00000000000000      0.00000000000000      0.11662089429905
|  8>   H   0.00000000000000      0.00000000000000      1.88337910570095
|  9> *
| 10>
| 11> %pal
| 12> nprocs 24
| 13> end
| 14>
| 15>
| 16>                          ****END OF INPUT****

CARTESIAN COORDINATES (ANGSTROEM)
---------------------------------
  Ti     0.000000    0.000000    0.116621
  H      0.000000    0.000000    1.883379

 Total Charge           Charge          ....    0
 Multiplicity           Mult            ....    4
 Number of Electrons    NEL             ....   23
 Basis Dimension        Dim             ....  116

ORBITAL ENERGIES
----------------
                 SPIN UP ORBITALS
  NO   OCC          E(Eh)            E(eV)
   0   1.0000    -178.138135     -4847.3851
   1   1.0000     -19.537889      -531.6530
   2   1.0000     -16.271587      -442.7724
   3   1.0000     -16.271587      -442.7724
   4   1.0000     -16.254121      -442.2971
   5   1.0000      -2.263033       -61.5803
   6   1.0000      -1.410096       -38.3707
   7   1.0000      -1.410096       -38.3707
   8   1.0000      -1.388598       -37.7857
   9   1.0000      -0.236211        -6.4276
  10   1.0000      -0.149187        -4.0596
  11   1.0000      -0.149187        -4.0596
  12   1.0000      -0.144530        -3.9329
  13   0.0000      -0.139479        -3.7954
  14   0.0000      -0.139479        -3.7954
  15   0.0000      -0.074466        -2.0263
  16   0.0000      -0.055603        -1.5130
  17   0.0000      -0.055603        -1.5130

                 SPIN DOWN ORBITALS
  NO   OCC          E(Eh)            E(eV)
   0   1.0000    -178.137473     -4847.3671
   1   1.0000     -19.517734      -531.1045
   2   1.0000     -16.258093      -442.4052
   3   1.0000     -16.258093      -442.4052
   4   1.0000     -16.232025      -441.6959
   5   1.0000      -2.197599       -59.7997
   6   1.0000      -1.357414       -36.9371
   7   1.0000      -1.357414       -36.9371
   8   1.0000      -1.289630       -35.0926
   9   1.0000      -0.221641        -6.0312
  10   0.0000      -0.106282        -2.8921
  11   0.0000      -0.096078        -2.6144
  12   0.0000      -0.096078        -2.6144
  13   0.0000      -0.054133        -1.4730
  14   0.0000      -0.054133        -1.4730

MULLIKEN ATOMIC CHARGES AND SPIN POPULATIONS
--------------------------------------------
   0 Ti:    0.123505    3.072487
   1 H :   -0.123505   -0.072487
Sum of atomic charges         :    0.0000000

LOEWDIN ATOMIC CHARGES AND SPIN POPULATIONS
-------------------------------------------
   0 Ti:    0.734704    2.785696
   1 H :   -0.734704    0.214304

  Mayer bond orders larger than 0.100000
B(  0-Ti,  1-H ) :   0.9362

Dispersion correction           -0.000659805
FINAL SINGLE POINT ENERGY      -849.977893011124

DIPOLE MOMENT
-------------
                                X             Y             Z
Electronic contribution:      0.00000       0.00000      -2.53372
Nuclear contribution   :      0.00000       0.00000       1.75604
                        -----------------------------------------
Total Dipole Moment    :      0.00000       0.00000      -0.77767
                        -----------------------------------------
Magnitude (a.u.)       :      0.77767
Magnitude (Debye)      :      1.97669

Rotational constants in cm-1:     0.000000     5.470494     5.470494
Rotational constants in MHz :     0.000000 164001.275229 164001.275229

                             ****ORCA TERMINATED NORMALLY****
TOTAL RUN TIME: 0 days 0 hours 0 minutes 6 seconds 984 msec
