                         Program Version 4.2.0 -  RELEASE  -
|  1> #
|  2> # 11_TiO tpss/aug-cc-pvtz
|  3> #
|  4> ! tpss d3bj aug-cc-pvtz def2/j grid4 nofinalgrid
|  5>
|  6> *xyz 0 3
|  7>   Ti  0.00000000000000      0.00000000000000      0.18878211244980
|  8>   O   0.00000000000000      0.00000000000000      1.81121788755020
|  9> *
| 10>
| 11> %pal
| 12> nprocs 24
| 13> end
| 14>
| 15>
| 16>                          ****END OF INPUT****

CARTESIAN COORDINATES (ANGSTROEM)
---------------------------------
  Ti     0.000000    0.000000    0.188782
  O      0.000000    0.000000    1.811218

 Total Charge           Charge          ....    0
 Multiplicity           Mult            ....    3
 Number of Electrons    NEL             ....   30
 Basis Dimension        Dim             ....  139

ORBITAL ENERGIES
----------------
                 SPIN UP ORBITALS
  NO   OCC          E(Eh)            E(eV)
   0   1.0000    -178.145492     -4847.5853
   1   1.0000     -19.547777      -531.9220
   2   1.0000     -18.859745      -513.1997
   3   1.0000     -16.276451      -442.9047
   4   1.0000     -16.276451      -442.9047
   5   1.0000     -16.276116      -442.8956
   6   1.0000      -2.261091       -61.5274
   7   1.0000      -1.412452       -38.4348
   8   1.0000      -1.401933       -38.1485
   9   1.0000      -1.401933       -38.1485
  10   1.0000      -0.791385       -21.5347
  11   1.0000      -0.279913        -7.6168
  12   1.0000      -0.278178        -7.5696
  13   1.0000      -0.278178        -7.5696
  14   1.0000      -0.164160        -4.4670
  15   1.0000      -0.158808        -4.3214
  16   0.0000      -0.109262        -2.9732
  17   0.0000      -0.092531        -2.5179
  18   0.0000      -0.092531        -2.5179
  19   0.0000      -0.066963        -1.8222
  20   0.0000      -0.018797        -0.5115

                 SPIN DOWN ORBITALS
  NO   OCC          E(Eh)            E(eV)
   0   1.0000    -178.144830     -4847.5673
   1   1.0000     -19.535971      -531.6008
   2   1.0000     -18.863516      -513.3024
   3   1.0000     -16.270959      -442.7553
   4   1.0000     -16.264692      -442.5848
   5   1.0000     -16.264692      -442.5848
   6   1.0000      -2.223075       -60.4929
   7   1.0000      -1.391348       -37.8605
   8   1.0000      -1.353965       -36.8433
   9   1.0000      -1.353965       -36.8433
  10   1.0000      -0.797136       -21.6912
  11   1.0000      -0.278546        -7.5796
  12   1.0000      -0.278546        -7.5796
  13   1.0000      -0.276919        -7.5353
  14   0.0000      -0.110139        -2.9970
  15   0.0000      -0.092908        -2.5282
  16   0.0000      -0.068628        -1.8675
  17   0.0000      -0.061265        -1.6671
  18   0.0000      -0.061265        -1.6671

MULLIKEN ATOMIC CHARGES AND SPIN POPULATIONS
--------------------------------------------
   0 Ti:    0.544052    2.109144
   1 O :   -0.544052   -0.109144
Sum of atomic charges         :   -0.0000000

LOEWDIN ATOMIC CHARGES AND SPIN POPULATIONS
-------------------------------------------
   0 Ti:    0.579385    1.967006
   1 O :   -0.579385    0.032994

  Mayer bond orders larger than 0.100000
B(  0-Ti,  1-O ) :   2.3229

Dispersion correction           -0.000851533
FINAL SINGLE POINT ENERGY      -924.770237561294

DIPOLE MOMENT
-------------
                                X             Y             Z
Electronic contribution:     -0.00000      -0.00000      -2.83216
Nuclear contribution   :      0.00000       0.00000       1.49807
                        -----------------------------------------
Total Dipole Moment    :     -0.00000      -0.00000      -1.33409
                        -----------------------------------------
Magnitude (a.u.)       :      1.33409
Magnitude (Debye)      :      3.39098

Rotational constants in cm-1:     0.000000     0.533983     0.533983
Rotational constants in MHz :     0.000000 16008.413204 16008.413204

                             ****ORCA TERMINATED NORMALLY****
TOTAL RUN TIME: 0 days 0 hours 0 minutes 11 seconds 318 msec
