                         Program Version 4.2.0 -  RELEASE  -
|  1> #
|  2> # 12_TiS tpss/aug-cc-pvtz
|  3> #
|  4> ! tpss d3bj aug-cc-pvtz def2/j grid4 nofinalgrid
|  5>
|  6> *xyz 0 3
|  7>   Ti  0.00000000000000      0.00000000000000     -0.04354772803913
|  8>   S   0.00000000000000      0.00000000000000      2.04354772803913
|  9> *
| 10>
| 11> %pal
| 12> nprocs 24
| 13> end
| 14>
| 15>
| 16>                          ****END OF INPUT****

CARTESIAN COORDINATES (ANGSTROEM)
---------------------------------
  Ti     0.000000    0.000000   -0.043548
  S      0.000000    0.000000    2.043548

 Total Charge           Charge          ....    0
 Multiplicity           Mult            ....    3
 Number of Electrons    NEL             ....   38
 Basis Dimension        Dim             ....  143

ORBITAL ENERGIES
----------------
                 SPIN UP ORBITALS
  NO   OCC          E(Eh)            E(eV)
   0   1.0000    -178.151796     -4847.7568
   1   1.0000     -88.331531     -2403.6232
   2   1.0000     -19.550715      -532.0020
   3   1.0000     -16.279752      -442.9946
   4   1.0000     -16.279752      -442.9946
   5   1.0000     -16.277831      -442.9423
   6   1.0000      -7.690597      -209.2718
   7   1.0000      -5.667979      -154.2336
   8   1.0000      -5.667979      -154.2336
   9   1.0000      -5.666561      -154.1950
  10   1.0000      -2.266571       -61.6765
  11   1.0000      -1.407481       -38.2995
  12   1.0000      -1.407481       -38.2995
  13   1.0000      -1.406863       -38.2827
  14   1.0000      -0.568194       -15.4613
  15   1.0000      -0.240066        -6.5325
  16   1.0000      -0.219501        -5.9729
  17   1.0000      -0.219501        -5.9729
  18   1.0000      -0.170539        -4.6406
  19   1.0000      -0.164665        -4.4807
  20   0.0000      -0.117411        -3.1949
  21   0.0000      -0.109943        -2.9917
  22   0.0000      -0.109943        -2.9917
  23   0.0000      -0.096519        -2.6264
  24   0.0000      -0.032916        -0.8957

                 SPIN DOWN ORBITALS
  NO   OCC          E(Eh)            E(eV)
   0   1.0000    -178.151305     -4847.7435
   1   1.0000     -88.332742     -2403.6561
   2   1.0000     -19.536213      -531.6074
   3   1.0000     -16.269275      -442.7095
   4   1.0000     -16.266502      -442.6340
   5   1.0000     -16.266502      -442.6340
   6   1.0000      -7.691701      -209.3018
   7   1.0000      -5.669567      -154.2768
   8   1.0000      -5.669567      -154.2768
   9   1.0000      -5.668178      -154.2390
  10   1.0000      -2.219307       -60.3904
  11   1.0000      -1.367962       -37.2241
  12   1.0000      -1.354185       -36.8492
  13   1.0000      -1.354185       -36.8492
  14   1.0000      -0.574809       -15.6413
  15   1.0000      -0.234548        -6.3824
  16   1.0000      -0.218944        -5.9578
  17   1.0000      -0.218944        -5.9578
  18   0.0000      -0.115151        -3.1334
  19   0.0000      -0.095485        -2.5983
  20   0.0000      -0.085045        -2.3142
  21   0.0000      -0.085045        -2.3142
  22   0.0000      -0.072473        -1.9721

MULLIKEN ATOMIC CHARGES AND SPIN POPULATIONS
--------------------------------------------
   0 Ti:    0.194697    2.202322
   1 S :   -0.194697   -0.202322
Sum of atomic charges         :   -0.0000000

LOEWDIN ATOMIC CHARGES AND SPIN POPULATIONS
-------------------------------------------
   0 Ti:    0.005090    2.025989
   1 S :   -0.005090   -0.025989

  Mayer bond orders larger than 0.100000
B(  0-Ti,  1-S ) :   2.5717

Dispersion correction           -0.001984326
FINAL SINGLE POINT ENERGY     -1247.732774924827

DIPOLE MOMENT
-------------
                                X             Y             Z
Electronic contribution:     -0.00000      -0.00000      -5.08280
Nuclear contribution   :      0.00000       0.00000       3.01278
                        -----------------------------------------
Total Dipole Moment    :     -0.00000      -0.00000      -2.07002
                        -----------------------------------------
Magnitude (a.u.)       :      2.07002
Magnitude (Debye)      :      5.26156

Rotational constants in cm-1:     0.000000     0.201505     0.201505
Rotational constants in MHz :     0.000000  6040.970749  6040.970749

                             ****ORCA TERMINATED NORMALLY****
TOTAL RUN TIME: 0 days 0 hours 0 minutes 7 seconds 850 msec
