                         Program Version 4.2.0 -  RELEASE  -
|  1> #
|  2> # 15_VCl tpss/aug-cc-pvtz
|  3> #
|  4> ! tpss d3bj aug-cc-pvtz def2/j grid4 nofinalgrid
|  5>
|  6> *xyz 0 5
|  7>   V   0.00000000000000      0.00000000000000     -0.10591307408469
|  8>   Cl  0.00000000000000      0.00000000000000      2.10591307408469
|  9> *
| 10>
| 11> %pal
| 12> nprocs 24
| 13> end
| 14>
| 15>
| 16>                          ****END OF INPUT****

CARTESIAN COORDINATES (ANGSTROEM)
---------------------------------
  V      0.000000    0.000000   -0.105913
  Cl     0.000000    0.000000    2.105913

 Total Charge           Charge          ....    0
 Multiplicity           Mult            ....    5
 Number of Electrons    NEL             ....   40
 Basis Dimension        Dim             ....  143

ORBITAL ENERGIES
----------------
                 SPIN UP ORBITALS
  NO   OCC          E(Eh)            E(eV)
   0   1.0000    -196.098764     -5336.1187
   1   1.0000    -100.983566     -2747.9025
   2   1.0000     -21.868512      -595.0725
   3   1.0000     -18.387843      -500.3587
   4   1.0000     -18.384843      -500.2770
   5   1.0000     -18.380173      -500.1499
   6   1.0000      -9.208986      -250.5893
   7   1.0000      -6.983795      -190.0387
   8   1.0000      -6.982635      -190.0072
   9   1.0000      -6.981649      -189.9803
  10   1.0000      -2.520187       -68.5778
  11   1.0000      -1.586988       -43.1841
  12   1.0000      -1.579374       -42.9770
  13   1.0000      -1.570409       -42.7330
  14   1.0000      -0.711688       -19.3660
  15   1.0000      -0.308201        -8.3866
  16   1.0000      -0.275170        -7.4878
  17   1.0000      -0.274318        -7.4646
  18   1.0000      -0.179227        -4.8770
  19   1.0000      -0.163606        -4.4519
  20   1.0000      -0.161276        -4.3886
  21   1.0000      -0.155221        -4.2238
  22   0.0000      -0.132628        -3.6090
  23   0.0000      -0.113165        -3.0794
  24   0.0000      -0.042806        -1.1648
  25   0.0000      -0.039736        -1.0813
  26   0.0000      -0.003081        -0.0838

                 SPIN DOWN ORBITALS
  NO   OCC          E(Eh)            E(eV)
   0   1.0000    -196.098095     -5336.1004
   1   1.0000    -100.984005     -2747.9145
   2   1.0000     -21.832552      -594.0939
   3   1.0000     -18.364421      -499.7213
   4   1.0000     -18.355217      -499.4709
   5   1.0000     -18.346014      -499.2204
   6   1.0000      -9.209331      -250.5986
   7   1.0000      -6.984697      -190.0633
   8   1.0000      -6.983441      -190.0291
   9   1.0000      -6.981546      -189.9775
  10   1.0000      -2.411107       -65.6096
  11   1.0000      -1.493638       -40.6440
  12   1.0000      -1.467241       -39.9256
  13   1.0000      -1.441606       -39.2281
  14   1.0000      -0.713048       -19.4030
  15   1.0000      -0.301318        -8.1993
  16   1.0000      -0.273359        -7.4385
  17   1.0000      -0.267707        -7.2847
  18   0.0000      -0.098234        -2.6731
  19   0.0000      -0.079282        -2.1574
  20   0.0000      -0.058742        -1.5985
  21   0.0000      -0.048343        -1.3155
  22   0.0000      -0.045064        -1.2262

MULLIKEN ATOMIC CHARGES AND SPIN POPULATIONS
--------------------------------------------
   0 V :    0.372408    4.040959
   1 Cl:   -0.372408   -0.040959
Sum of atomic charges         :   -0.0000000

LOEWDIN ATOMIC CHARGES AND SPIN POPULATIONS
-------------------------------------------
   0 V :   -0.066415    3.906938
   1 Cl:    0.066415    0.093062

  Mayer bond orders larger than 0.100000
B(  0-V ,  1-Cl) :   1.1676

Dispersion correction           -0.001858160
FINAL SINGLE POINT ENERGY     -1404.296935438941

DIPOLE MOMENT
-------------
                                X             Y             Z
Electronic contribution:     -0.00000      -0.00000      -4.04876
Nuclear contribution   :      0.00000       0.00000       2.44617
                        -----------------------------------------
Total Dipole Moment    :     -0.00000      -0.00000      -1.60259
                        -----------------------------------------
Magnitude (a.u.)       :      1.60259
Magnitude (Debye)      :      4.07347

Rotational constants in cm-1:     0.000000     0.164840     0.164840
Rotational constants in MHz :     0.000000  4941.766851  4941.766851

                             ****ORCA TERMINATED NORMALLY****
TOTAL RUN TIME: 0 days 0 hours 0 minutes 10 seconds 492 msec
