                         Program Version 4.2.0 -  RELEASE  -
|  1> #
|  2> # 16_VBr tpss/aug-cc-pvtz
|  3> #
|  4> ! tpss d3bj aug-cc-pvtz def2/j grid4 nofinalgrid
|  5>
|  6> *xyz 0 5
|  7>   V   0.00000000000000      0.00000000000000     -0.18045152200616
|  8>   Br  0.00000000000000      0.00000000000000      2.18045152200616
|  9> *
| 10>
| 11> %pal
| 12> nprocs 24
| 13> end
| 14>
| 15>
| 16>                          ****END OF INPUT****

CARTESIAN COORDINATES (ANGSTROEM)
---------------------------------
  V      0.000000    0.000000   -0.180452
  Br     0.000000    0.000000    2.180452

 Total Charge           Charge          ....    0
 Multiplicity           Mult            ....    5
 Number of Electrons    NEL             ....   58
 Basis Dimension        Dim             ....  152

ORBITAL ENERGIES
----------------
                 SPIN UP ORBITALS
  NO   OCC          E(Eh)            E(eV)
   0   1.0000    -481.703173    -13107.8097
   1   1.0000    -196.097626     -5336.0877
   2   1.0000     -61.921004     -1684.9562
   3   1.0000     -55.753307     -1517.1246
   4   1.0000     -55.752965     -1517.1153
   5   1.0000     -55.752687     -1517.1077
   6   1.0000     -21.866336      -595.0132
   7   1.0000     -18.385400      -500.2922
   8   1.0000     -18.382700      -500.2187
   9   1.0000     -18.378257      -500.0978
  10   1.0000      -8.446804      -229.8492
  11   1.0000      -6.284294      -171.0043
  12   1.0000      -6.283277      -170.9767
  13   1.0000      -6.281747      -170.9350
  14   1.0000      -2.519067       -68.5473
  15   1.0000      -2.453317       -66.7581
  16   1.0000      -2.453057       -66.7511
  17   1.0000      -2.451999       -66.7223
  18   1.0000      -2.450980       -66.6946
  19   1.0000      -2.450827       -66.6904
  20   1.0000      -1.585716       -43.1495
  21   1.0000      -1.578525       -42.9538
  22   1.0000      -1.569342       -42.7040
  23   1.0000      -0.674564       -18.3558
  24   1.0000      -0.291637        -7.9358
  25   1.0000      -0.256789        -6.9876
  26   1.0000      -0.256106        -6.9690
  27   1.0000      -0.179997        -4.8980
  28   1.0000      -0.163717        -4.4550
  29   1.0000      -0.161178        -4.3859
  30   1.0000      -0.154657        -4.2084
  31   0.0000      -0.133375        -3.6293
  32   0.0000      -0.115496        -3.1428
  33   0.0000      -0.044265        -1.2045
  34   0.0000      -0.041072        -1.1176
  35   0.0000      -0.004308        -0.1172

                 SPIN DOWN ORBITALS
  NO   OCC          E(Eh)            E(eV)
   0   1.0000    -481.703365    -13107.8149
   1   1.0000    -196.096998     -5336.0706
   2   1.0000     -61.921048     -1684.9574
   3   1.0000     -55.753538     -1517.1309
   4   1.0000     -55.753176     -1517.1211
   5   1.0000     -55.752682     -1517.1076
   6   1.0000     -21.830070      -594.0264
   7   1.0000     -18.361397      -499.6390
   8   1.0000     -18.353029      -499.4113
   9   1.0000     -18.344016      -499.1661
  10   1.0000      -8.447037      -229.8556
  11   1.0000      -6.284706      -171.0155
  12   1.0000      -6.283648      -170.9868
  13   1.0000      -6.281754      -170.9352
  14   1.0000      -2.453906       -66.7742
  15   1.0000      -2.453610       -66.7661
  16   1.0000      -2.452230       -66.7286
  17   1.0000      -2.451181       -66.7000
  18   1.0000      -2.450955       -66.6939
  19   1.0000      -2.408793       -65.5466
  20   1.0000      -1.489748       -40.5381
  21   1.0000      -1.465819       -39.8870
  22   1.0000      -1.440209       -39.1901
  23   1.0000      -0.676171       -18.3995
  24   1.0000      -0.283982        -7.7275
  25   1.0000      -0.255034        -6.9398
  26   1.0000      -0.249769        -6.7966
  27   0.0000      -0.099380        -2.7043
  28   0.0000      -0.080172        -2.1816
  29   0.0000      -0.060522        -1.6469
  30   0.0000      -0.049811        -1.3554
  31   0.0000      -0.045154        -1.2287

MULLIKEN ATOMIC CHARGES AND SPIN POPULATIONS
--------------------------------------------
   0 V :    0.303182    4.055948
   1 Br:   -0.303182   -0.055948
Sum of atomic charges         :   -0.0000000

LOEWDIN ATOMIC CHARGES AND SPIN POPULATIONS
-------------------------------------------
   0 V :   -0.159408    3.919355
   1 Br:    0.159408    0.080645

  Mayer bond orders larger than 0.100000
B(  0-V ,  1-Br) :   1.2820

Dispersion correction           -0.002084561
FINAL SINGLE POINT ENERGY     -3518.166942960357

DIPOLE MOMENT
-------------
                                X             Y             Z
Electronic contribution:      0.00000       0.00000       0.21751
Nuclear contribution   :      0.00000       0.00000      -1.86860
                        -----------------------------------------
Total Dipole Moment    :      0.00000       0.00000      -1.65109
                        -----------------------------------------
Magnitude (a.u.)       :      1.65109
Magnitude (Debye)      :      4.19675

Rotational constants in cm-1:     0.000000     0.097224     0.097224
Rotational constants in MHz :     0.000000  2914.715129  2914.715129

                             ****ORCA TERMINATED NORMALLY****
TOTAL RUN TIME: 0 days 0 hours 0 minutes 12 seconds 396 msec
