                         Program Version 4.2.0 -  RELEASE  -
|  1> #
|  2> # 19_CrH tpss/aug-cc-pvtz
|  3> #
|  4> ! tpss d3bj aug-cc-pvtz def2/j grid4 nofinalgrid
|  5>
|  6> *xyz 0 6
|  7>   Cr  0.00000000000000      0.00000000000000      0.17036458455703
|  8>   H   0.00000000000000      0.00000000000000      1.82963541544297
|  9> *
| 10>
| 11> %pal
| 12> nprocs 24
| 13> end
| 14>
| 15>
| 16>                          ****END OF INPUT****

CARTESIAN COORDINATES (ANGSTROEM)
---------------------------------
  Cr     0.000000    0.000000    0.170365
  H      0.000000    0.000000    1.829635

 Total Charge           Charge          ....    0
 Multiplicity           Mult            ....    6
 Number of Electrons    NEL             ....   25
 Basis Dimension        Dim             ....  116

ORBITAL ENERGIES
----------------
                 SPIN UP ORBITALS
  NO   OCC          E(Eh)            E(eV)
   0   1.0000    -214.897270     -5847.6520
   1   1.0000     -24.295616      -661.1173
   2   1.0000     -20.599215      -560.5332
   3   1.0000     -20.597764      -560.4936
   4   1.0000     -20.597764      -560.4936
   5   1.0000      -2.761958       -75.1567
   6   1.0000      -1.738169       -47.2980
   7   1.0000      -1.735178       -47.2166
   8   1.0000      -1.735178       -47.2166
   9   1.0000      -0.245702        -6.6859
  10   1.0000      -0.167845        -4.5673
  11   1.0000      -0.167845        -4.5673
  12   1.0000      -0.162430        -4.4199
  13   1.0000      -0.161093        -4.3836
  14   1.0000      -0.161093        -4.3836
  15   0.0000      -0.091931        -2.5016
  16   0.0000      -0.042792        -1.1644
  17   0.0000      -0.042792        -1.1644
  18   0.0000       0.001233         0.0336
  19   0.0000       0.014424         0.3925

                 SPIN DOWN ORBITALS
  NO   OCC          E(Eh)            E(eV)
   0   1.0000    -214.896574     -5847.6331
   1   1.0000     -24.242416      -659.6697
   2   1.0000     -20.559583      -559.4547
   3   1.0000     -20.553260      -559.2826
   4   1.0000     -20.553260      -559.2826
   5   1.0000      -2.604362       -70.8683
   6   1.0000      -1.585469       -43.1428
   7   1.0000      -1.572256       -42.7833
   8   1.0000      -1.572256       -42.7833
   9   1.0000      -0.236280        -6.4295
  10   0.0000      -0.081417        -2.2155
  11   0.0000      -0.029546        -0.8040
  12   0.0000      -0.025423        -0.6918
  13   0.0000      -0.025423        -0.6918
  14   0.0000      -0.018207        -0.4954

MULLIKEN ATOMIC CHARGES AND SPIN POPULATIONS
--------------------------------------------
   0 Cr:    0.258288    5.143635
   1 H :   -0.258288   -0.143635
Sum of atomic charges         :    0.0000000

LOEWDIN ATOMIC CHARGES AND SPIN POPULATIONS
-------------------------------------------
   0 Cr:    0.608183    4.885136
   1 H :   -0.608183    0.114864

  Mayer bond orders larger than 0.100000
B(  0-Cr,  1-H ) :   0.9988

Dispersion correction           -0.000620328
FINAL SINGLE POINT ENERGY     -1045.078019704069

DIPOLE MOMENT
-------------
                                X             Y             Z
Electronic contribution:     -0.00000      -0.00000      -2.77438
Nuclear contribution   :      0.00000       0.00000       1.64492
                        -----------------------------------------
Total Dipole Moment    :     -0.00000      -0.00000      -1.12946
                        -----------------------------------------
Magnitude (a.u.)       :      1.12946
Magnitude (Debye)      :      2.87086

Rotational constants in cm-1:     0.000000     6.192127     6.192127
Rotational constants in MHz :     0.000000 185635.310837 185635.310837

                             ****ORCA TERMINATED NORMALLY****
TOTAL RUN TIME: 0 days 0 hours 0 minutes 6 seconds 813 msec
