                         Program Version 4.2.0 -  RELEASE  -
|  1> #
|  2> # 21_CrCl tpss/aug-cc-pvtz
|  3> #
|  4> ! tpss d3bj aug-cc-pvtz def2/j grid4 nofinalgrid
|  5>
|  6> *xyz 0 6
|  7>   Cr  0.00000000000000      0.00000000000000     -0.09885250745251
|  8>   Cl  0.00000000000000      0.00000000000000      2.09885250745250
|  9> *
| 10>
| 11> %pal
| 12> nprocs 24
| 13> end
| 14>
| 15>
| 16>                          ****END OF INPUT****

CARTESIAN COORDINATES (ANGSTROEM)
---------------------------------
  Cr     0.000000    0.000000   -0.098853
  Cl     0.000000    0.000000    2.098853

 Total Charge           Charge          ....    0
 Multiplicity           Mult            ....    6
 Number of Electrons    NEL             ....   41
 Basis Dimension        Dim             ....  143

ORBITAL ENERGIES
----------------
                 SPIN UP ORBITALS
  NO   OCC          E(Eh)            E(eV)
   0   1.0000    -214.924974     -5848.4059
   1   1.0000    -100.972673     -2747.6061
   2   1.0000     -24.322230      -661.8415
   3   1.0000     -20.625420      -561.2462
   4   1.0000     -20.624663      -561.2256
   5   1.0000     -20.624663      -561.2256
   6   1.0000      -9.197779      -250.2843
   7   1.0000      -6.973225      -189.7511
   8   1.0000      -6.970685      -189.6820
   9   1.0000      -6.970685      -189.6820
  10   1.0000      -2.790109       -75.9227
  11   1.0000      -1.768967       -48.1360
  12   1.0000      -1.762208       -47.9521
  13   1.0000      -1.762208       -47.9521
  14   1.0000      -0.701229       -19.0814
  15   1.0000      -0.301893        -8.2149
  16   1.0000      -0.268684        -7.3113
  17   1.0000      -0.268684        -7.3113
  18   1.0000      -0.186407        -5.0724
  19   1.0000      -0.186404        -5.0723
  20   1.0000      -0.183559        -4.9949
  21   1.0000      -0.180717        -4.9176
  22   1.0000      -0.180717        -4.9176
  23   0.0000      -0.125706        -3.4206
  24   0.0000      -0.040809        -1.1105
  25   0.0000      -0.040809        -1.1105
  26   0.0000      -0.001931        -0.0525
  27   0.0000       0.002776         0.0756

                 SPIN DOWN ORBITALS
  NO   OCC          E(Eh)            E(eV)
   0   1.0000    -214.924221     -5848.3854
   1   1.0000    -100.972983     -2747.6146
   2   1.0000     -24.269022      -660.3937
   3   1.0000     -20.586203      -560.1791
   4   1.0000     -20.579859      -560.0064
   5   1.0000     -20.579859      -560.0064
   6   1.0000      -9.198023      -250.2909
   7   1.0000      -6.974657      -189.7901
   8   1.0000      -6.970532      -189.6778
   9   1.0000      -6.970532      -189.6778
  10   1.0000      -2.633008       -71.6478
  11   1.0000      -1.617328       -44.0097
  12   1.0000      -1.599748       -43.5314
  13   1.0000      -1.599748       -43.5314
  14   1.0000      -0.701869       -19.0988
  15   1.0000      -0.293366        -7.9829
  16   1.0000      -0.257949        -7.0191
  17   1.0000      -0.257949        -7.0191
  18   0.0000      -0.097035        -2.6404
  19   0.0000      -0.050781        -1.3818
  20   0.0000      -0.045207        -1.2301
  21   0.0000      -0.045207        -1.2301
  22   0.0000      -0.041683        -1.1343

MULLIKEN ATOMIC CHARGES AND SPIN POPULATIONS
--------------------------------------------
   0 Cr:    0.351020    5.062815
   1 Cl:   -0.351020   -0.062815
Sum of atomic charges         :   -0.0000000

LOEWDIN ATOMIC CHARGES AND SPIN POPULATIONS
-------------------------------------------
   0 Cr:    0.004321    4.880488
   1 Cl:   -0.004321    0.119512

  Mayer bond orders larger than 0.100000
B(  0-Cr,  1-Cl) :   1.0971

Dispersion correction           -0.001746532
FINAL SINGLE POINT ENERGY     -1504.810656167188

DIPOLE MOMENT
-------------
                                X             Y             Z
Electronic contribution:     -0.00000      -0.00000      -3.44352
Nuclear contribution   :      0.00000       0.00000       1.57322
                        -----------------------------------------
Total Dipole Moment    :     -0.00000      -0.00000      -1.87031
                        -----------------------------------------
Magnitude (a.u.)       :      1.87031
Magnitude (Debye)      :      4.75394

Rotational constants in cm-1:     0.000000     0.165568     0.165568
Rotational constants in MHz :     0.000000  4963.604658  4963.604658

                             ****ORCA TERMINATED NORMALLY****
TOTAL RUN TIME: 0 days 0 hours 0 minutes 7 seconds 753 msec
