                         Program Version 4.2.0 -  RELEASE  -
|  1> #
|  2> # 23_CrO tpss/aug-cc-pvtz
|  3> #
|  4> ! tpss d3bj aug-cc-pvtz def2/j grid4 nofinalgrid
|  5>
|  6> *xyz 0 5
|  7>   Cr  0.00000000000000      0.00000000000000      0.19264925280896
|  8>   O   0.00000000000000      0.00000000000000      1.80735074719104
|  9> *
| 10>
| 11> %pal
| 12> nprocs 24
| 13> end
| 14>
| 15>
| 16>                          ****END OF INPUT****

CARTESIAN COORDINATES (ANGSTROEM)
---------------------------------
  Cr     0.000000    0.000000    0.192649
  O      0.000000    0.000000    1.807351

 Total Charge           Charge          ....    0
 Multiplicity           Mult            ....    5
 Number of Electrons    NEL             ....   32
 Basis Dimension        Dim             ....  139

ORBITAL ENERGIES
----------------
                 SPIN UP ORBITALS
  NO   OCC          E(Eh)            E(eV)
   0   1.0000    -214.972096     -5849.6881
   1   1.0000     -24.382427      -663.4796
   2   1.0000     -20.688583      -562.9650
   3   1.0000     -20.688050      -562.9505
   4   1.0000     -20.680214      -562.7372
   5   1.0000     -18.873978      -513.5871
   6   1.0000      -2.827602       -76.9430
   7   1.0000      -1.806554       -49.1588
   8   1.0000      -1.803586       -49.0781
   9   1.0000      -1.793522       -48.8042
  10   1.0000      -0.813113       -22.1259
  11   1.0000      -0.312325        -8.4988
  12   1.0000      -0.303602        -8.2614
  13   1.0000      -0.294246        -8.0068
  14   1.0000      -0.215837        -5.8732
  15   1.0000      -0.215179        -5.8553
  16   1.0000      -0.186640        -5.0787
  17   1.0000      -0.164159        -4.4670
  18   0.0000      -0.148868        -4.0509
  19   0.0000      -0.100223        -2.7272
  20   0.0000      -0.031429        -0.8552
  21   0.0000      -0.029392        -0.7998
  22   0.0000       0.001048         0.0285

                 SPIN DOWN ORBITALS
  NO   OCC          E(Eh)            E(eV)
   0   1.0000    -214.970988     -5849.6580
   1   1.0000     -24.339640      -662.3153
   2   1.0000     -20.661566      -562.2298
   3   1.0000     -20.652679      -561.9880
   4   1.0000     -20.638632      -561.6057
   5   1.0000     -18.880162      -513.7553
   6   1.0000      -2.704192       -73.5848
   7   1.0000      -1.708965       -46.5033
   8   1.0000      -1.676168       -45.6108
   9   1.0000      -1.645096       -44.7653
  10   1.0000      -0.824083       -22.4244
  11   1.0000      -0.298985        -8.1358
  12   1.0000      -0.295329        -8.0363
  13   1.0000      -0.270449        -7.3593
  14   0.0000      -0.109667        -2.9842
  15   0.0000      -0.087635        -2.3847
  16   0.0000      -0.081138        -2.2079
  17   0.0000      -0.081099        -2.2068
  18   0.0000      -0.060025        -1.6334

MULLIKEN ATOMIC CHARGES AND SPIN POPULATIONS
--------------------------------------------
   0 Cr:    0.554986    4.203552
   1 O :   -0.554986   -0.203552
Sum of atomic charges         :    0.0000000

LOEWDIN ATOMIC CHARGES AND SPIN POPULATIONS
-------------------------------------------
   0 Cr:    0.550078    4.008538
   1 O :   -0.550078   -0.008538

  Mayer bond orders larger than 0.100000
B(  0-Cr,  1-O ) :   2.1247

Dispersion correction           -0.000843464
FINAL SINGLE POINT ENERGY     -1119.770775768850

DIPOLE MOMENT
-------------
                                X             Y             Z
Electronic contribution:      0.00000      -0.00000      -2.90137
Nuclear contribution   :      0.00000       0.00000       1.43702
                        -----------------------------------------
Total Dipole Moment    :      0.00000      -0.00000      -1.46435
                        -----------------------------------------
Magnitude (a.u.)       :      1.46435
Magnitude (Debye)      :      3.72207

Rotational constants in cm-1:     0.000000     0.528468     0.528468
Rotational constants in MHz :     0.000000 15843.074100 15843.074100

                             ****ORCA TERMINATED NORMALLY****
TOTAL RUN TIME: 0 days 0 hours 0 minutes 8 seconds 532 msec
