                         Program Version 4.2.0 -  RELEASE  -
|  1> #
|  2> # 24_CrS tpss/aug-cc-pvtz
|  3> #
|  4> ! tpss d3bj aug-cc-pvtz def2/j grid4 nofinalgrid
|  5>
|  6> *xyz 0 5
|  7>   Cr  0.00000000000000      0.00000000000000     -0.04064132858643
|  8>   S   0.00000000000000      0.00000000000000      2.04064132858643
|  9> *
| 10>
| 11> %pal
| 12> nprocs 24
| 13> end
| 14>
| 15>
| 16>                          ****END OF INPUT****

CARTESIAN COORDINATES (ANGSTROEM)
---------------------------------
  Cr     0.000000    0.000000   -0.040641
  S      0.000000    0.000000    2.040641

 Total Charge           Charge          ....    0
 Multiplicity           Mult            ....    5
 Number of Electrons    NEL             ....   40
 Basis Dimension        Dim             ....  143

ORBITAL ENERGIES
----------------
                 SPIN UP ORBITALS
  NO   OCC          E(Eh)            E(eV)
   0   1.0000    -214.953705     -5849.1877
   1   1.0000     -88.347068     -2404.0459
   2   1.0000     -24.356651      -662.7782
   3   1.0000     -20.662059      -562.2432
   4   1.0000     -20.660881      -562.2112
   5   1.0000     -20.655629      -562.0682
   6   1.0000      -7.704312      -209.6450
   7   1.0000      -5.682912      -154.6399
   8   1.0000      -5.680756      -154.5812
   9   1.0000      -5.679422      -154.5449
  10   1.0000      -2.813219       -76.5516
  11   1.0000      -1.789988       -48.7080
  12   1.0000      -1.789412       -48.6924
  13   1.0000      -1.780446       -48.4484
  14   1.0000      -0.574378       -15.6296
  15   1.0000      -0.265346        -7.2204
  16   1.0000      -0.244713        -6.6590
  17   1.0000      -0.238927        -6.5015
  18   1.0000      -0.208002        -5.6600
  19   1.0000      -0.205823        -5.6007
  20   1.0000      -0.193621        -5.2687
  21   1.0000      -0.165773        -4.5109
  22   0.0000      -0.155311        -4.2262
  23   0.0000      -0.116887        -3.1806
  24   0.0000      -0.035622        -0.9693
  25   0.0000      -0.033646        -0.9155
  26   0.0000      -0.000453        -0.0123

                 SPIN DOWN ORBITALS
  NO   OCC          E(Eh)            E(eV)
   0   1.0000    -214.952946     -5849.1670
   1   1.0000     -88.349931     -2404.1238
   2   1.0000     -24.308281      -661.4619
   3   1.0000     -20.626947      -561.2878
   4   1.0000     -20.622488      -561.1664
   5   1.0000     -20.612013      -560.8814
   6   1.0000      -7.706988      -209.7178
   7   1.0000      -5.689743      -154.8258
   8   1.0000      -5.684400      -154.6804
   9   1.0000      -5.680430      -154.5723
  10   1.0000      -2.671489       -72.6949
  11   1.0000      -1.660549       -45.1858
  12   1.0000      -1.646400       -44.8008
  13   1.0000      -1.623009       -44.1643
  14   1.0000      -0.592794       -16.1307
  15   1.0000      -0.249396        -6.7864
  16   1.0000      -0.237385        -6.4596
  17   1.0000      -0.213562        -5.8113
  18   0.0000      -0.107882        -2.9356
  19   0.0000      -0.085114        -2.3161
  20   0.0000      -0.069490        -1.8909
  21   0.0000      -0.066032        -1.7968
  22   0.0000      -0.065188        -1.7739

MULLIKEN ATOMIC CHARGES AND SPIN POPULATIONS
--------------------------------------------
   0 Cr:    0.252094    4.552081
   1 S :   -0.252094   -0.552081
Sum of atomic charges         :   -0.0000000

LOEWDIN ATOMIC CHARGES AND SPIN POPULATIONS
-------------------------------------------
   0 Cr:    0.031598    4.291301
   1 S :   -0.031598   -0.291301

  Mayer bond orders larger than 0.100000
B(  0-Cr,  1-S ) :   2.1874

Dispersion correction           -0.001990392
FINAL SINGLE POINT ENERGY     -1442.760291176836

DIPOLE MOMENT
-------------
                                X             Y             Z
Electronic contribution:      0.00000       0.00000      -4.86035
Nuclear contribution   :      0.00000       0.00000       2.92710
                        -----------------------------------------
Total Dipole Moment    :      0.00000       0.00000      -1.93325
                        -----------------------------------------
Magnitude (a.u.)       :      1.93325
Magnitude (Debye)      :      4.91392

Rotational constants in cm-1:     0.000000     0.196226     0.196226
Rotational constants in MHz :     0.000000  5882.717555  5882.717555

                             ****ORCA TERMINATED NORMALLY****
TOTAL RUN TIME: 0 days 0 hours 0 minutes 10 seconds 491 msec
