                         Program Version 4.2.0 -  RELEASE  -
|  1> #
|  2> # 25_MnH tpss/aug-cc-pvtz
|  3> #
|  4> ! tpss d3bj aug-cc-pvtz def2/j grid4 nofinalgrid
|  5>
|  6> *xyz 0 7
|  7>   Mn  0.00000000000000      0.00000000000000      0.13923463274405
|  8>   H   0.00000000000000      0.00000000000000      1.86076536725595
|  9> *
| 10>
| 11> %pal
| 12> nprocs 24
| 13> end
| 14>
| 15>
| 16>                          ****END OF INPUT****

CARTESIAN COORDINATES (ANGSTROEM)
---------------------------------
  Mn     0.000000    0.000000    0.139235
  H      0.000000    0.000000    1.860765

 Total Charge           Charge          ....    0
 Multiplicity           Mult            ....    7
 Number of Electrons    NEL             ....   26
 Basis Dimension        Dim             ....  116

ORBITAL ENERGIES
----------------
                 SPIN UP ORBITALS
  NO   OCC          E(Eh)            E(eV)
   0   1.0000    -234.720120     -6387.0592
   1   1.0000     -27.021218      -735.2847
   2   1.0000     -23.108113      -628.8037
   3   1.0000     -23.108113      -628.8037
   4   1.0000     -23.104758      -628.7124
   5   1.0000      -3.180918       -86.5572
   6   1.0000      -2.067865       -56.2695
   7   1.0000      -2.067865       -56.2695
   8   1.0000      -2.054572       -55.9077
   9   1.0000      -0.322725        -8.7818
  10   1.0000      -0.311445        -8.4749
  11   1.0000      -0.311445        -8.4748
  12   1.0000      -0.303238        -8.2515
  13   1.0000      -0.303238        -8.2515
  14   1.0000      -0.254324        -6.9205
  15   1.0000      -0.147543        -4.0148
  16   0.0000      -0.064698        -1.7605
  17   0.0000      -0.064698        -1.7605
  18   0.0000      -0.003400        -0.0925
  19   0.0000       0.008952         0.2436
  20   0.0000       0.021315         0.5800

                 SPIN DOWN ORBITALS
  NO   OCC          E(Eh)            E(eV)
   0   1.0000    -234.718371     -6387.0116
   1   1.0000     -26.950375      -733.3570
   2   1.0000     -23.050130      -627.2259
   3   1.0000     -23.050130      -627.2259
   4   1.0000     -23.048767      -627.1888
   5   1.0000      -2.991262       -81.3964
   6   1.0000      -1.876657       -51.0664
   7   1.0000      -1.876657       -51.0664
   8   1.0000      -1.866007       -50.7766
   9   1.0000      -0.256299        -6.9742
  10   0.0000      -0.138048        -3.7565
  11   0.0000      -0.137030        -3.7288
  12   0.0000      -0.137029        -3.7287
  13   0.0000      -0.126795        -3.4503
  14   0.0000      -0.126795        -3.4503

MULLIKEN ATOMIC CHARGES AND SPIN POPULATIONS
--------------------------------------------
   0 Mn:    0.221377    5.892572
   1 H :   -0.221377    0.107428
Sum of atomic charges         :    0.0000000

LOEWDIN ATOMIC CHARGES AND SPIN POPULATIONS
-------------------------------------------
   0 Mn:    0.567656    5.763124
   1 H :   -0.567656    0.236876

  Mayer bond orders larger than 0.100000
B(  0-Mn,  1-H ) :   0.9566

Dispersion correction           -0.000678355
FINAL SINGLE POINT ENERGY     -1151.599833414186

DIPOLE MOMENT
-------------
                                X             Y             Z
Electronic contribution:     -0.00000      -0.00000      -2.08541
Nuclear contribution   :      0.00000       0.00000       1.72930
                        -----------------------------------------
Total Dipole Moment    :     -0.00000      -0.00000      -0.35612
                        -----------------------------------------
Magnitude (a.u.)       :      0.35612
Magnitude (Debye)      :      0.90517

Rotational constants in cm-1:     0.000000     5.746491     5.746491
Rotational constants in MHz :     0.000000 172275.461427 172275.461427

                             ****ORCA TERMINATED NORMALLY****
TOTAL RUN TIME: 0 days 0 hours 0 minutes 6 seconds 785 msec
