                         Program Version 4.2.0 -  RELEASE  -
|  1> #
|  2> # 27_MnCl tpss/aug-cc-pvtz
|  3> #
|  4> ! tpss d3bj aug-cc-pvtz def2/j grid4 nofinalgrid
|  5>
|  6> *xyz 0 7
|  7>   Mn  0.00000000000000      0.00000000000000     -0.11585879372688
|  8>   Cl  0.00000000000000      0.00000000000000      2.11585879372688
|  9> *
| 10>
| 11> %pal
| 12> nprocs 24
| 13> end
| 14>
| 15>
| 16>                          ****END OF INPUT****

CARTESIAN COORDINATES (ANGSTROEM)
---------------------------------
  Mn     0.000000    0.000000   -0.115859
  Cl     0.000000    0.000000    2.115859

 Total Charge           Charge          ....    0
 Multiplicity           Mult            ....    7
 Number of Electrons    NEL             ....   42
 Basis Dimension        Dim             ....  143

ORBITAL ENERGIES
----------------
                 SPIN UP ORBITALS
  NO   OCC          E(Eh)            E(eV)
   0   1.0000    -234.732795     -6387.4041
   1   1.0000    -100.992031     -2748.1329
   2   1.0000     -27.032081      -735.5803
   3   1.0000     -23.118983      -629.0995
   4   1.0000     -23.118983      -629.0995
   5   1.0000     -23.115744      -629.0114
   6   1.0000      -9.217065      -250.8091
   7   1.0000      -6.992562      -190.2773
   8   1.0000      -6.990430      -190.2193
   9   1.0000      -6.990430      -190.2193
  10   1.0000      -3.193159       -86.8903
  11   1.0000      -2.079226       -56.5786
  12   1.0000      -2.079226       -56.5786
  13   1.0000      -2.069500       -56.3140
  14   1.0000      -0.726253       -19.7623
  15   1.0000      -0.353842        -9.6285
  16   1.0000      -0.329617        -8.9693
  17   1.0000      -0.329617        -8.9693
  18   1.0000      -0.322800        -8.7838
  19   1.0000      -0.322800        -8.7838
  20   1.0000      -0.280462        -7.6318
  21   1.0000      -0.263110        -7.1596
  22   1.0000      -0.263110        -7.1596
  23   1.0000      -0.177825        -4.8389
  24   0.0000      -0.060360        -1.6425
  25   0.0000      -0.060360        -1.6425
  26   0.0000      -0.008903        -0.2423
  27   0.0000      -0.003409        -0.0928
  28   0.0000       0.019198         0.5224

                 SPIN DOWN ORBITALS
  NO   OCC          E(Eh)            E(eV)
   0   1.0000    -234.730981     -6387.3547
   1   1.0000    -100.990750     -2748.0980
   2   1.0000     -26.961098      -733.6488
   3   1.0000     -23.061113      -627.5248
   4   1.0000     -23.061113      -627.5248
   5   1.0000     -23.059220      -627.4733
   6   1.0000      -9.215972      -250.7793
   7   1.0000      -6.990703      -190.2267
   8   1.0000      -6.988963      -190.1794
   9   1.0000      -6.988963      -190.1794
  10   1.0000      -3.003568       -81.7313
  11   1.0000      -1.887918       -51.3729
  12   1.0000      -1.887918       -51.3729
  13   1.0000      -1.881734       -51.2046
  14   1.0000      -0.718242       -19.5443
  15   1.0000      -0.316818        -8.6211
  16   1.0000      -0.277318        -7.5462
  17   1.0000      -0.277318        -7.5462
  18   0.0000      -0.147179        -4.0050
  19   0.0000      -0.147177        -4.0049
  20   0.0000      -0.146054        -3.9743
  21   0.0000      -0.136722        -3.7204
  22   0.0000      -0.136722        -3.7204

MULLIKEN ATOMIC CHARGES AND SPIN POPULATIONS
--------------------------------------------
   0 Mn:    0.424003    5.839788
   1 Cl:   -0.424003    0.160212
Sum of atomic charges         :   -0.0000000

LOEWDIN ATOMIC CHARGES AND SPIN POPULATIONS
-------------------------------------------
   0 Mn:    0.086142    5.695888
   1 Cl:   -0.086142    0.304112

  Mayer bond orders larger than 0.100000
B(  0-Mn,  1-Cl) :   0.9857

Dispersion correction           -0.001522441
FINAL SINGLE POINT ENERGY     -1611.344510846218

DIPOLE MOMENT
-------------
                                X             Y             Z
Electronic contribution:     -0.00000      -0.00000      -3.15341
Nuclear contribution   :      0.00000       0.00000       2.22337
                        -----------------------------------------
Total Dipole Moment    :     -0.00000      -0.00000      -0.93004
                        -----------------------------------------
Magnitude (a.u.)       :      0.93004
Magnitude (Debye)      :      2.36398

Rotational constants in cm-1:     0.000000     0.157077     0.157077
Rotational constants in MHz :     0.000000  4709.038991  4709.038991

                             ****ORCA TERMINATED NORMALLY****
TOTAL RUN TIME: 0 days 0 hours 0 minutes 7 seconds 781 msec
