                         Program Version 4.2.0 -  RELEASE  -
|  1> #
|  2> # 29_MnO tpss/aug-cc-pvtz
|  3> #
|  4> ! tpss d3bj aug-cc-pvtz def2/j grid4 nofinalgrid
|  5>
|  6> *xyz 0 6
|  7>   Mn  0.00000000000000      0.00000000000000      0.18548662877309
|  8>   O   0.00000000000000      0.00000000000000      1.81451337122691
|  9> *
| 10>
| 11> %pal
| 12> nprocs 24
| 13> end
| 14>
| 15>
| 16>                          ****END OF INPUT****

CARTESIAN COORDINATES (ANGSTROEM)
---------------------------------
  Mn     0.000000    0.000000    0.185487
  O      0.000000    0.000000    1.814513

 Total Charge           Charge          ....    0
 Multiplicity           Mult            ....    6
 Number of Electrons    NEL             ....   33
 Basis Dimension        Dim             ....  139

ORBITAL ENERGIES
----------------
                 SPIN UP ORBITALS
  NO   OCC          E(Eh)            E(eV)
   0   1.0000    -234.693026     -6386.3219
   1   1.0000     -26.987630      -734.3707
   2   1.0000     -23.076875      -627.9537
   3   1.0000     -23.076875      -627.9537
   4   1.0000     -23.069942      -627.7650
   5   1.0000     -18.859675      -513.1978
   6   1.0000      -3.137022       -85.3627
   7   1.0000      -2.024820       -55.0982
   8   1.0000      -2.024820       -55.0982
   9   1.0000      -2.015230       -54.8372
  10   1.0000      -0.811396       -22.0792
  11   1.0000      -0.319839        -8.7033
  12   1.0000      -0.317177        -8.6308
  13   1.0000      -0.317177        -8.6308
  14   1.0000      -0.273504        -7.4424
  15   1.0000      -0.273504        -7.4424
  16   1.0000      -0.210140        -5.7182
  17   1.0000      -0.192677        -5.2430
  18   1.0000      -0.192677        -5.2430
  19   0.0000      -0.120811        -3.2874
  20   0.0000      -0.036075        -0.9817
  21   0.0000      -0.036075        -0.9817
  22   0.0000      -0.000077        -0.0021
  23   0.0000       0.006460         0.1758

                 SPIN DOWN ORBITALS
  NO   OCC          E(Eh)            E(eV)
   0   1.0000    -234.691498     -6386.2803
   1   1.0000     -26.928431      -732.7599
   2   1.0000     -23.028909      -626.6485
   3   1.0000     -23.025587      -626.5581
   4   1.0000     -23.025587      -626.5581
   5   1.0000     -18.854349      -513.0529
   6   1.0000      -2.981020       -81.1177
   7   1.0000      -1.878302       -51.1112
   8   1.0000      -1.859266       -50.5932
   9   1.0000      -1.859266       -50.5932
  10   1.0000      -0.798092       -21.7172
  11   1.0000      -0.290418        -7.9027
  12   1.0000      -0.253926        -6.9097
  13   1.0000      -0.253926        -6.9097
  14   0.0000      -0.122958        -3.3459
  15   0.0000      -0.117300        -3.1919
  16   0.0000      -0.117294        -3.1917
  17   0.0000      -0.088120        -2.3979
  18   0.0000      -0.088120        -2.3979

MULLIKEN ATOMIC CHARGES AND SPIN POPULATIONS
--------------------------------------------
   0 Mn:    0.583766    4.736593
   1 O :   -0.583766    0.263407
Sum of atomic charges         :   -0.0000000

LOEWDIN ATOMIC CHARGES AND SPIN POPULATIONS
-------------------------------------------
   0 Mn:    0.613890    4.622863
   1 O :   -0.613890    0.377137

  Mayer bond orders larger than 0.100000
B(  0-Mn,  1-O ) :   2.0540

Dispersion correction           -0.000744442
FINAL SINGLE POINT ENERGY     -1226.311328407397

DIPOLE MOMENT
-------------
                                X             Y             Z
Electronic contribution:     -0.00000      -0.00000      -3.44823
Nuclear contribution   :      0.00000       0.00000       1.71606
                        -----------------------------------------
Total Dipole Moment    :     -0.00000      -0.00000      -1.73216
                        -----------------------------------------
Magnitude (a.u.)       :      1.73216
Magnitude (Debye)      :      4.40281

Rotational constants in cm-1:     0.000000     0.512677     0.512677
Rotational constants in MHz :     0.000000 15369.677147 15369.677147

                             ****ORCA TERMINATED NORMALLY****
TOTAL RUN TIME: 0 days 0 hours 0 minutes 9 seconds 449 msec
