                         Program Version 4.2.0 -  RELEASE  -
|  1> #
|  2> # 30_MnS tpss/aug-cc-pvtz
|  3> #
|  4> ! tpss d3bj aug-cc-pvtz def2/j grid4 nofinalgrid
|  5>
|  6> *xyz 0 6
|  7>   Mn  0.00000000000000      0.00000000000000     -0.02260858554296
|  8>   S   0.00000000000000      0.00000000000000      2.02260858554296
|  9> *
| 10>
| 11> %pal
| 12> nprocs 24
| 13> end
| 14>
| 15>
| 16>                          ****END OF INPUT****

CARTESIAN COORDINATES (ANGSTROEM)
---------------------------------
  Mn     0.000000    0.000000   -0.022609
  S      0.000000    0.000000    2.022609

 Total Charge           Charge          ....    0
 Multiplicity           Mult            ....    6
 Number of Electrons    NEL             ....   41
 Basis Dimension        Dim             ....  143

ORBITAL ENERGIES
----------------
                 SPIN UP ORBITALS
  NO   OCC          E(Eh)            E(eV)
   0   1.0000    -234.692869     -6386.3176
   1   1.0000     -88.339921     -2403.8515
   2   1.0000     -26.982624      -734.2345
   3   1.0000     -23.071927      -627.8191
   4   1.0000     -23.071927      -627.8191
   5   1.0000     -23.064595      -627.6195
   6   1.0000      -7.697012      -209.4463
   7   1.0000      -5.674600      -154.4137
   8   1.0000      -5.674347      -154.4068
   9   1.0000      -5.674347      -154.4068
  10   1.0000      -3.137359       -85.3719
  11   1.0000      -2.025586       -55.1190
  12   1.0000      -2.025586       -55.1190
  13   1.0000      -2.014271       -54.8111
  14   1.0000      -0.583170       -15.8689
  15   1.0000      -0.295017        -8.0278
  16   1.0000      -0.287494        -7.8231
  17   1.0000      -0.287494        -7.8231
  18   1.0000      -0.276555        -7.5254
  19   1.0000      -0.276554        -7.5254
  20   1.0000      -0.226739        -6.1699
  21   1.0000      -0.188689        -5.1345
  22   1.0000      -0.188689        -5.1345
  23   0.0000      -0.134257        -3.6533
  24   0.0000      -0.041604        -1.1321
  25   0.0000      -0.041604        -1.1321
  26   0.0000      -0.001755        -0.0477
  27   0.0000       0.003334         0.0907

                 SPIN DOWN ORBITALS
  NO   OCC          E(Eh)            E(eV)
   0   1.0000    -234.691673     -6386.2851
   1   1.0000     -88.339256     -2403.8334
   2   1.0000     -26.921236      -732.5641
   3   1.0000     -23.019958      -626.4049
   4   1.0000     -23.019934      -626.4042
   5   1.0000     -23.019934      -626.4042
   6   1.0000      -7.696388      -209.4294
   7   1.0000      -5.676694      -154.4707
   8   1.0000      -5.671975      -154.3423
   9   1.0000      -5.671975      -154.3423
  10   1.0000      -2.974049       -80.9280
  11   1.0000      -1.862670       -50.6858
  12   1.0000      -1.855935       -50.5026
  13   1.0000      -1.855935       -50.5026
  14   1.0000      -0.576929       -15.6990
  15   1.0000      -0.255133        -6.9425
  16   1.0000      -0.214400        -5.8341
  17   1.0000      -0.214400        -5.8341
  18   0.0000      -0.130293        -3.5454
  19   0.0000      -0.118041        -3.2120
  20   0.0000      -0.118040        -3.2120
  21   0.0000      -0.107442        -2.9236
  22   0.0000      -0.107442        -2.9236

MULLIKEN ATOMIC CHARGES AND SPIN POPULATIONS
--------------------------------------------
   0 Mn:    0.319830    4.751983
   1 S :   -0.319830    0.248017
Sum of atomic charges         :   -0.0000000

LOEWDIN ATOMIC CHARGES AND SPIN POPULATIONS
-------------------------------------------
   0 Mn:    0.135508    4.665586
   1 S :   -0.135508    0.334414

  Mayer bond orders larger than 0.100000
B(  0-Mn,  1-S ) :   2.2284

Dispersion correction           -0.001712268
FINAL SINGLE POINT ENERGY     -1549.311679306992

DIPOLE MOMENT
-------------
                                X             Y             Z
Electronic contribution:      0.00000       0.00000      -5.54838
Nuclear contribution   :      0.00000       0.00000       3.44465
                        -----------------------------------------
Total Dipole Moment    :      0.00000       0.00000      -2.10373
                        -----------------------------------------
Magnitude (a.u.)       :      2.10373
Magnitude (Debye)      :      5.34725

Rotational constants in cm-1:     0.000000     0.199061     0.199061
Rotational constants in MHz :     0.000000  5967.684062  5967.684062

                             ****ORCA TERMINATED NORMALLY****
TOTAL RUN TIME: 0 days 0 hours 0 minutes 9 seconds 36 msec
