                         Program Version 4.2.0 -  RELEASE  -
|  1> #
|  2> # 31_FeH tpss/aug-cc-pvtz
|  3> #
|  4> ! tpss d3bj aug-cc-pvtz def2/j grid4 nofinalgrid
|  5>
|  6> *xyz 0 4
|  7>   Fe  0.00000000000000      0.00000000000000      0.22838748047068
|  8>   H   0.00000000000000      0.00000000000000      1.77161251952932
|  9> *
| 10>
| 11> %pal
| 12> nprocs 24
| 13> end
| 14>
| 15>
| 16>                          ****END OF INPUT****

CARTESIAN COORDINATES (ANGSTROEM)
---------------------------------
  Fe     0.000000    0.000000    0.228387
  H      0.000000    0.000000    1.771613

 Total Charge           Charge          ....    0
 Multiplicity           Mult            ....    4
 Number of Electrons    NEL             ....   27
 Basis Dimension        Dim             ....  116

ORBITAL ENERGIES
----------------
                 SPIN UP ORBITALS
  NO   OCC          E(Eh)            E(eV)
   0   1.0000    -255.181336     -6943.8372
   1   1.0000     -29.581544      -804.9547
   2   1.0000     -25.463131      -692.8870
   3   1.0000     -25.463131      -692.8870
   4   1.0000     -25.434336      -692.1035
   5   1.0000      -3.301901       -89.8493
   6   1.0000      -2.116666       -57.5974
   7   1.0000      -2.116666       -57.5974
   8   1.0000      -2.058802       -56.0228
   9   1.0000      -0.259378        -7.0580
  10   1.0000      -0.216686        -5.8963
  11   1.0000      -0.216686        -5.8963
  12   1.0000      -0.180158        -4.9024
  13   1.0000      -0.165081        -4.4921
  14   1.0000      -0.165081        -4.4921
  15   0.0000      -0.087662        -2.3854
  16   0.0000      -0.036200        -0.9850
  17   0.0000      -0.036200        -0.9850
  18   0.0000       0.005393         0.1468
  19   0.0000       0.017327         0.4715

                 SPIN DOWN ORBITALS
  NO   OCC          E(Eh)            E(eV)
   0   1.0000    -255.180508     -6943.8146
   1   1.0000     -29.539349      -803.8066
   2   1.0000     -25.423064      -691.7967
   3   1.0000     -25.423064      -691.7967
   4   1.0000     -25.412280      -691.5033
   5   1.0000      -3.192588       -86.8747
   6   1.0000      -1.989155       -54.1277
   7   1.0000      -1.989155       -54.1277
   8   1.0000      -1.985215       -54.0204
   9   1.0000      -0.252113        -6.8604
  10   1.0000      -0.119918        -3.2631
  11   1.0000      -0.119918        -3.2631
  12   0.0000      -0.095013        -2.5854
  13   0.0000      -0.082822        -2.2537
  14   0.0000      -0.082822        -2.2537
  15   0.0000      -0.043055        -1.1716
  16   0.0000      -0.014852        -0.4041

MULLIKEN ATOMIC CHARGES AND SPIN POPULATIONS
--------------------------------------------
   0 Fe:    0.017167    3.132581
   1 H :   -0.017167   -0.132581
Sum of atomic charges         :   -0.0000000

LOEWDIN ATOMIC CHARGES AND SPIN POPULATIONS
-------------------------------------------
   0 Fe:    0.688751    3.000326
   1 H :   -0.688751   -0.000326

  Mayer bond orders larger than 0.100000
B(  0-Fe,  1-H ) :   1.0180

Dispersion correction           -0.000470715
FINAL SINGLE POINT ENERGY     -1264.310856521750

DIPOLE MOMENT
-------------
                                X             Y             Z
Electronic contribution:     -0.00000      -0.00000      -2.52944
Nuclear contribution   :      0.00000       0.00000       1.52035
                        -----------------------------------------
Total Dipole Moment    :     -0.00000      -0.00000      -1.00908
                        -----------------------------------------
Magnitude (a.u.)       :      1.00908
Magnitude (Debye)      :      2.56489

Rotational constants in cm-1:     0.000000     7.149016     7.149016
Rotational constants in MHz :     0.000000 214322.097628 214322.097628

                             ****ORCA TERMINATED NORMALLY****
TOTAL RUN TIME: 0 days 0 hours 0 minutes 6 seconds 869 msec
