                         Program Version 4.2.0 -  RELEASE  -
|  1> #
|  2> # 32_FeF tpss/aug-cc-pvtz
|  3> #
|  4> ! tpss d3bj aug-cc-pvtz def2/j grid4 nofinalgrid
|  5>
|  6> *xyz 0 6
|  7>   Fe  0.00000000000000      0.00000000000000      0.10964273788681
|  8>   F   0.00000000000000      0.00000000000000      1.89035726211319
|  9> *
| 10>
| 11> %pal
| 12> nprocs 24
| 13> end
| 14>
| 15>
| 16>                          ****END OF INPUT****

CARTESIAN COORDINATES (ANGSTROEM)
---------------------------------
  Fe     0.000000    0.000000    0.109643
  F      0.000000    0.000000    1.890357

 Total Charge           Charge          ....    0
 Multiplicity           Mult            ....    6
 Number of Electrons    NEL             ....   35
 Basis Dimension        Dim             ....  139

ORBITAL ENERGIES
----------------
                 SPIN UP ORBITALS
  NO   OCC          E(Eh)            E(eV)
   0   1.0000    -255.297901     -6947.0091
   1   1.0000     -29.721556      -808.7646
   2   1.0000     -25.608920      -696.8541
   3   1.0000     -25.582622      -696.1385
   4   1.0000     -25.582622      -696.1385
   5   1.0000     -24.374766      -663.2711
   6   1.0000      -3.451250       -93.9133
   7   1.0000      -2.277522       -61.9745
   8   1.0000      -2.227471       -60.6126
   9   1.0000      -2.227471       -60.6126
  10   1.0000      -1.054444       -28.6929
  11   1.0000      -0.410536       -11.1712
  12   1.0000      -0.373139       -10.1536
  13   1.0000      -0.373139       -10.1536
  14   1.0000      -0.318837        -8.6760
  15   1.0000      -0.293922        -7.9980
  16   1.0000      -0.293922        -7.9980
  17   1.0000      -0.289439        -7.8760
  18   1.0000      -0.279016        -7.5924
  19   1.0000      -0.179731        -4.8907
  20   0.0000      -0.048066        -1.3079
  21   0.0000      -0.048066        -1.3079
  22   0.0000      -0.006559        -0.1785
  23   0.0000       0.000071         0.0019
  24   0.0000       0.025285         0.6880

                 SPIN DOWN ORBITALS
  NO   OCC          E(Eh)            E(eV)
   0   1.0000    -255.295981     -6946.9568
   1   1.0000     -29.659276      -807.0699
   2   1.0000     -25.550232      -695.2572
   3   1.0000     -25.536208      -694.8755
   4   1.0000     -25.536208      -694.8755
   5   1.0000     -24.366926      -663.0578
   6   1.0000      -3.294354       -89.6439
   7   1.0000      -2.091243       -56.9056
   8   1.0000      -2.085045       -56.7370
   9   1.0000      -2.085045       -56.7370
  10   1.0000      -1.038020       -28.2460
  11   1.0000      -0.371896       -10.1198
  12   1.0000      -0.334705        -9.1078
  13   1.0000      -0.334705        -9.1078
  14   1.0000      -0.211621        -5.7585
  15   0.0000      -0.167554        -4.5594
  16   0.0000      -0.154206        -4.1962
  17   0.0000      -0.154206        -4.1962
  18   0.0000      -0.132363        -3.6018
  19   0.0000      -0.105800        -2.8790

MULLIKEN ATOMIC CHARGES AND SPIN POPULATIONS
--------------------------------------------
   0 Fe:    0.535667    4.789028
   1 F :   -0.535667    0.210972
Sum of atomic charges         :   -0.0000000

LOEWDIN ATOMIC CHARGES AND SPIN POPULATIONS
-------------------------------------------
   0 Fe:    0.388600    4.667301
   1 F :   -0.388600    0.332699

  Mayer bond orders larger than 0.100000
B(  0-Fe,  1-F ) :   0.8181

Dispersion correction           -0.000520728
FINAL SINGLE POINT ENERGY     -1363.676563038678

DIPOLE MOMENT
-------------
                                X             Y             Z
Electronic contribution:     -0.00000       0.00000      -1.03734
Nuclear contribution   :      0.00000       0.00000       0.39123
                        -----------------------------------------
Total Dipole Moment    :     -0.00000       0.00000      -0.64611
                        -----------------------------------------
Magnitude (a.u.)       :      0.64611
Magnitude (Debye)      :      1.64229

Rotational constants in cm-1:     0.000000     0.375023     0.375023
Rotational constants in MHz :     0.000000 11242.894653 11242.894653

                             ****ORCA TERMINATED NORMALLY****
TOTAL RUN TIME: 0 days 0 hours 0 minutes 7 seconds 34 msec
