                         Program Version 4.2.0 -  RELEASE  -
|  1> #
|  2> # 33_FeCl tpss/aug-cc-pvtz
|  3> #
|  4> ! tpss d3bj aug-cc-pvtz def2/j grid4 nofinalgrid
|  5>
|  6> *xyz 0 6
|  7>   Fe  0.00000000000000      0.00000000000000     -0.08894892709089
|  8>   Cl  0.00000000000000      0.00000000000000      2.08894892709089
|  9> *
| 10>
| 11> %pal
| 12> nprocs 24
| 13> end
| 14>
| 15>
| 16>                          ****END OF INPUT****

CARTESIAN COORDINATES (ANGSTROEM)
---------------------------------
  Fe     0.000000    0.000000   -0.088949
  Cl     0.000000    0.000000    2.088949

 Total Charge           Charge          ....    0
 Multiplicity           Mult            ....    6
 Number of Electrons    NEL             ....   43
 Basis Dimension        Dim             ....  143

ORBITAL ENERGIES
----------------
                 SPIN UP ORBITALS
  NO   OCC          E(Eh)            E(eV)
   0   1.0000    -255.307359     -6947.2664
   1   1.0000    -101.009044     -2748.5958
   2   1.0000     -29.730255      -809.0014
   3   1.0000     -25.618272      -697.1086
   4   1.0000     -25.591077      -696.3686
   5   1.0000     -25.591077      -696.3686
   6   1.0000      -9.233895      -251.2671
   7   1.0000      -7.009741      -190.7448
   8   1.0000      -7.007257      -190.6772
   9   1.0000      -7.007257      -190.6772
  10   1.0000      -3.458778       -94.1181
  11   1.0000      -2.285543       -62.1928
  12   1.0000      -2.234444       -60.8023
  13   1.0000      -2.234444       -60.8023
  14   1.0000      -0.743880       -20.2420
  15   1.0000      -0.377938       -10.2842
  16   1.0000      -0.351326        -9.5601
  17   1.0000      -0.351326        -9.5601
  18   1.0000      -0.325349        -8.8532
  19   1.0000      -0.299870        -8.1599
  20   1.0000      -0.285509        -7.7691
  21   1.0000      -0.278956        -7.5908
  22   1.0000      -0.278956        -7.5908
  23   1.0000      -0.178778        -4.8648
  24   0.0000      -0.052672        -1.4333
  25   0.0000      -0.052672        -1.4333
  26   0.0000      -0.007909        -0.2152
  27   0.0000      -0.001351        -0.0367
  28   0.0000       0.021075         0.5735

                 SPIN DOWN ORBITALS
  NO   OCC          E(Eh)            E(eV)
   0   1.0000    -255.305513     -6947.2162
   1   1.0000    -101.007215     -2748.5461
   2   1.0000     -29.668686      -807.3260
   3   1.0000     -25.560327      -695.5319
   4   1.0000     -25.545188      -695.1199
   5   1.0000     -25.545188      -695.1199
   6   1.0000      -9.232352      -251.2251
   7   1.0000      -7.007157      -190.6744
   8   1.0000      -7.005136      -190.6194
   9   1.0000      -7.005136      -190.6194
  10   1.0000      -3.303256       -89.8862
  11   1.0000      -2.100929       -57.1692
  12   1.0000      -2.093119       -56.9567
  13   1.0000      -2.093119       -56.9567
  14   1.0000      -0.732846       -19.9418
  15   1.0000      -0.335712        -9.1352
  16   1.0000      -0.290842        -7.9142
  17   1.0000      -0.290842        -7.9142
  18   1.0000      -0.218802        -5.9539
  19   0.0000      -0.182805        -4.9744
  20   0.0000      -0.170479        -4.6390
  21   0.0000      -0.170479        -4.6390
  22   0.0000      -0.139706        -3.8016
  23   0.0000      -0.115087        -3.1317

MULLIKEN ATOMIC CHARGES AND SPIN POPULATIONS
--------------------------------------------
   0 Fe:    0.376592    4.748928
   1 Cl:   -0.376592    0.251072
Sum of atomic charges         :   -0.0000000

LOEWDIN ATOMIC CHARGES AND SPIN POPULATIONS
-------------------------------------------
   0 Fe:    0.039190    4.626694
   1 Cl:   -0.039190    0.373306

  Mayer bond orders larger than 0.100000
B(  0-Fe,  1-Cl) :   1.0655

Dispersion correction           -0.001433265
FINAL SINGLE POINT ENERGY     -1724.040733244959

DIPOLE MOMENT
-------------
                                X             Y             Z
Electronic contribution:      0.00000       0.00000      -1.89695
Nuclear contribution   :      0.00000       0.00000       1.24736
                        -----------------------------------------
Total Dipole Moment    :      0.00000       0.00000      -0.64959
                        -----------------------------------------
Magnitude (a.u.)       :      0.64959
Magnitude (Debye)      :      1.65114

Rotational constants in cm-1:     0.000000     0.163882     0.163882
Rotational constants in MHz :     0.000000  4913.053230  4913.053230

                             ****ORCA TERMINATED NORMALLY****
TOTAL RUN TIME: 0 days 0 hours 0 minutes 7 seconds 964 msec
