                         Program Version 4.2.0 -  RELEASE  -
|  1> #
|  2> # 37_CoH tpss/aug-cc-pvtz
|  3> #
|  4> ! tpss d3bj aug-cc-pvtz def2/j grid4 nofinalgrid
|  5>
|  6> *xyz 0 3
|  7>   Co  0.00000000000000      0.00000000000000      0.23964953556340
|  8>   H   0.00000000000000      0.00000000000000      1.76035046443660
|  9> *
| 10>
| 11> %pal
| 12> nprocs 24
| 13> end
| 14>
| 15>
| 16>                          ****END OF INPUT****

CARTESIAN COORDINATES (ANGSTROEM)
---------------------------------
  Co     0.000000    0.000000    0.239650
  H      0.000000    0.000000    1.760350

 Total Charge           Charge          ....    0
 Multiplicity           Mult            ....    3
 Number of Electrons    NEL             ....   28
 Basis Dimension        Dim             ....  116

ORBITAL ENERGIES
----------------
                 SPIN UP ORBITALS
  NO   OCC          E(Eh)            E(eV)
   0   1.0000    -276.601508     -7526.7097
   1   1.0000     -32.378771      -881.0712
   2   1.0000     -28.034735      -762.8639
   3   1.0000     -28.034735      -762.8639
   4   1.0000     -28.033751      -762.8372
   5   1.0000      -3.560683       -96.8911
   6   1.0000      -2.264573       -61.6222
   7   1.0000      -2.264573       -61.6222
   8   1.0000      -2.264479       -61.6196
   9   1.0000      -0.269051        -7.3213
  10   1.0000      -0.208438        -5.6719
  11   1.0000      -0.187288        -5.0964
  12   1.0000      -0.172253        -4.6872
  13   1.0000      -0.172253        -4.6872
  14   1.0000      -0.168986        -4.5983
  15   0.0000      -0.090543        -2.4638
  16   0.0000      -0.029235        -0.7955
  17   0.0000      -0.029235        -0.7955
  18   0.0000       0.006980         0.1899
  19   0.0000       0.019129         0.5205

                 SPIN DOWN ORBITALS
  NO   OCC          E(Eh)            E(eV)
   0   1.0000    -276.600806     -7526.6906
   1   1.0000     -32.350173      -880.2930
   2   1.0000     -28.013535      -762.2870
   3   1.0000     -28.009873      -762.1874
   4   1.0000     -28.009873      -762.1874
   5   1.0000      -3.487000       -94.8861
   6   1.0000      -2.193130       -59.6781
   7   1.0000      -2.189021       -59.5663
   8   1.0000      -2.189021       -59.5663
   9   1.0000      -0.259310        -7.0562
  10   1.0000      -0.141949        -3.8626
  11   1.0000      -0.141949        -3.8626
  12   1.0000      -0.139391        -3.7930
  13   0.0000      -0.105318        -2.8658
  14   0.0000      -0.072903        -1.9838
  15   0.0000      -0.063660        -1.7323
  16   0.0000      -0.013649        -0.3714
  17   0.0000      -0.013649        -0.3714

MULLIKEN ATOMIC CHARGES AND SPIN POPULATIONS
--------------------------------------------
   0 Co:    0.005202    2.091584
   1 H :   -0.005202   -0.091584
Sum of atomic charges         :    0.0000000

LOEWDIN ATOMIC CHARGES AND SPIN POPULATIONS
-------------------------------------------
   0 Co:    0.611985    1.989606
   1 H :   -0.611985    0.010394

  Mayer bond orders larger than 0.100000
B(  0-Co,  1-H ) :   1.0409

Dispersion correction           -0.000500260
FINAL SINGLE POINT ENERGY     -1383.398342950314

DIPOLE MOMENT
-------------
                                X             Y             Z
Electronic contribution:     -0.00000      -0.00000      -2.55277
Nuclear contribution   :      0.00000       0.00000       1.52052
                        -----------------------------------------
Total Dipole Moment    :     -0.00000      -0.00000      -1.03226
                        -----------------------------------------
Magnitude (a.u.)       :      1.03226
Magnitude (Debye)      :      2.62379

Rotational constants in cm-1:     0.000000     7.355540     7.355540
Rotational constants in MHz :     0.000000 220513.537195 220513.537195

                             ****ORCA TERMINATED NORMALLY****
TOTAL RUN TIME: 0 days 0 hours 0 minutes 7 seconds 27 msec
