                         Program Version 4.2.0 -  RELEASE  -
|  1> #
|  2> # 38_CoF tpss/aug-cc-pvtz
|  3> #
|  4> ! tpss d3bj aug-cc-pvtz def2/j grid4 nofinalgrid
|  5>
|  6> *xyz 0 3
|  7>   Co  0.00000000000000      0.00000000000000      0.12338928235446
|  8>   F   0.00000000000000      0.00000000000000      1.87661071764554
|  9> *
| 10>
| 11> %pal
| 12> nprocs 24
| 13> end
| 14>
| 15>
| 16>                          ****END OF INPUT****

CARTESIAN COORDINATES (ANGSTROEM)
---------------------------------
  Co     0.000000    0.000000    0.123389
  F      0.000000    0.000000    1.876611

 Total Charge           Charge          ....    0
 Multiplicity           Mult            ....    3
 Number of Electrons    NEL             ....   36
 Basis Dimension        Dim             ....  139

ORBITAL ENERGIES
----------------
                 SPIN UP ORBITALS
  NO   OCC          E(Eh)            E(eV)
   0   1.0000    -276.649809     -7528.0240
   1   1.0000     -32.432440      -882.5315
   2   1.0000     -28.090524      -764.3820
   3   1.0000     -28.088958      -764.3394
   4   1.0000     -28.082737      -764.1701
   5   1.0000     -24.340573      -662.3407
   6   1.0000      -3.619974       -98.5045
   7   1.0000      -2.331514       -63.4437
   8   1.0000      -2.325504       -63.2802
   9   1.0000      -2.312220       -62.9187
  10   1.0000      -1.013030       -27.5659
  11   1.0000      -0.356677        -9.7057
  12   1.0000      -0.324163        -8.8209
  13   1.0000      -0.313002        -8.5172
  14   1.0000      -0.248145        -6.7524
  15   1.0000      -0.236092        -6.4244
  16   1.0000      -0.213811        -5.8181
  17   1.0000      -0.203287        -5.5317
  18   1.0000      -0.200909        -5.4670
  19   0.0000      -0.137105        -3.7308
  20   0.0000      -0.022638        -0.6160
  21   0.0000      -0.021040        -0.5725
  22   0.0000       0.006556         0.1784
  23   0.0000       0.012095         0.3291

                 SPIN DOWN ORBITALS
  NO   OCC          E(Eh)            E(eV)
   0   1.0000    -276.649359     -7528.0118
   1   1.0000     -32.398414      -881.6057
   2   1.0000     -28.062153      -763.6100
   3   1.0000     -28.061155      -763.5829
   4   1.0000     -28.055867      -763.4390
   5   1.0000     -24.338752      -662.2911
   6   1.0000      -3.533779       -96.1590
   7   1.0000      -2.243264       -61.0423
   8   1.0000      -2.233617       -60.7798
   9   1.0000      -2.233590       -60.7791
  10   1.0000      -1.009208       -27.4619
  11   1.0000      -0.346750        -9.4355
  12   1.0000      -0.307947        -8.3797
  13   1.0000      -0.302060        -8.2195
  14   1.0000      -0.182425        -4.9640
  15   1.0000      -0.173746        -4.7279
  16   1.0000      -0.171119        -4.6564
  17   0.0000      -0.129050        -3.5116
  18   0.0000      -0.116457        -3.1690
  19   0.0000      -0.101681        -2.7669
  20   0.0000      -0.021112        -0.5745
  21   0.0000      -0.016882        -0.4594

MULLIKEN ATOMIC CHARGES AND SPIN POPULATIONS
--------------------------------------------
   0 Co:    0.589920    1.945108
   1 F :   -0.589920    0.054892
Sum of atomic charges         :   -0.0000000

LOEWDIN ATOMIC CHARGES AND SPIN POPULATIONS
-------------------------------------------
   0 Co:    0.414751    1.931219
   1 F :   -0.414751    0.068781

  Mayer bond orders larger than 0.100000
B(  0-Co,  1-F ) :   0.8373

Dispersion correction           -0.000530050
FINAL SINGLE POINT ENERGY     -1482.736655982805

DIPOLE MOMENT
-------------
                                X             Y             Z
Electronic contribution:      0.00000      -0.00000      -2.44244
Nuclear contribution   :      0.00000       0.00000       0.74078
                        -----------------------------------------
Total Dipole Moment    :      0.00000      -0.00000      -1.70166
                        -----------------------------------------
Magnitude (a.u.)       :      1.70166
Magnitude (Debye)      :      4.32528

Rotational constants in cm-1:     0.000000     0.381744     0.381744
Rotational constants in MHz :     0.000000 11444.406260 11444.406260

                             ****ORCA TERMINATED NORMALLY****
TOTAL RUN TIME: 0 days 0 hours 0 minutes 12 seconds 614 msec
