                         Program Version 4.2.0 -  RELEASE  -
|  1> #
|  2> # 39_CoCl tpss/aug-cc-pvtz
|  3> #
|  4> ! tpss d3bj aug-cc-pvtz def2/j grid4 nofinalgrid
|  5>
|  6> *xyz 0 3
|  7>   Co  0.00000000000000      0.00000000000000     -0.04491550120186
|  8>   Cl  0.00000000000000      0.00000000000000      2.04491550120186
|  9> *
| 10>
| 11> %pal
| 12> nprocs 24
| 13> end
| 14>
| 15>
| 16>                          ****END OF INPUT****

CARTESIAN COORDINATES (ANGSTROEM)
---------------------------------
  Co     0.000000    0.000000   -0.044916
  Cl     0.000000    0.000000    2.044916

 Total Charge           Charge          ....    0
 Multiplicity           Mult            ....    3
 Number of Electrons    NEL             ....   44
 Basis Dimension        Dim             ....  143

ORBITAL ENERGIES
----------------
                 SPIN UP ORBITALS
  NO   OCC          E(Eh)            E(eV)
   0   1.0000    -276.647217     -7527.9535
   1   1.0000    -100.984902     -2747.9389
   2   1.0000     -32.426805      -882.3782
   3   1.0000     -28.085191      -764.2369
   4   1.0000     -28.081328      -764.1318
   5   1.0000     -28.079476      -764.0814
   6   1.0000      -9.208953      -250.5884
   7   1.0000      -6.985494      -190.0850
   8   1.0000      -6.982290      -189.9978
   9   1.0000      -6.980900      -189.9600
  10   1.0000      -3.614191       -98.3471
  11   1.0000      -2.321157       -63.1619
  12   1.0000      -2.320759       -63.1511
  13   1.0000      -2.311191       -62.8907
  14   1.0000      -0.712449       -19.3867
  15   1.0000      -0.323274        -8.7967
  16   1.0000      -0.291196        -7.9238
  17   1.0000      -0.277296        -7.5456
  18   1.0000      -0.248626        -6.7654
  19   1.0000      -0.229736        -6.2514
  20   1.0000      -0.212933        -5.7942
  21   1.0000      -0.207010        -5.6330
  22   1.0000      -0.201012        -5.4698
  23   0.0000      -0.134254        -3.6532
  24   0.0000      -0.025200        -0.6857
  25   0.0000      -0.024031        -0.6539
  26   0.0000       0.006384         0.1737
  27   0.0000       0.007786         0.2119

                 SPIN DOWN ORBITALS
  NO   OCC          E(Eh)            E(eV)
   0   1.0000    -276.646746     -7527.9407
   1   1.0000    -100.984696     -2747.9333
   2   1.0000     -32.394066      -881.4873
   3   1.0000     -28.057613      -763.4865
   4   1.0000     -28.055534      -763.4299
   5   1.0000     -28.052915      -763.3586
   6   1.0000      -9.208783      -250.5837
   7   1.0000      -6.985774      -190.0926
   8   1.0000      -6.981286      -189.9704
   9   1.0000      -6.980857      -189.9588
  10   1.0000      -3.530776       -96.0773
  11   1.0000      -2.239303       -60.9345
  12   1.0000      -2.231643       -60.7261
  13   1.0000      -2.231371       -60.7187
  14   1.0000      -0.711005       -19.3474
  15   1.0000      -0.314741        -8.5645
  16   1.0000      -0.271357        -7.3840
  17   1.0000      -0.266486        -7.2514
  18   1.0000      -0.183247        -4.9864
  19   1.0000      -0.178388        -4.8542
  20   1.0000      -0.173021        -4.7081
  21   0.0000      -0.125452        -3.4137
  22   0.0000      -0.118814        -3.2331
  23   0.0000      -0.106689        -2.9032
  24   0.0000      -0.021586        -0.5874
  25   0.0000      -0.017557        -0.4777

MULLIKEN ATOMIC CHARGES AND SPIN POPULATIONS
--------------------------------------------
   0 Co:    0.459762    1.971689
   1 Cl:   -0.459762    0.028311
Sum of atomic charges         :   -0.0000000

LOEWDIN ATOMIC CHARGES AND SPIN POPULATIONS
-------------------------------------------
   0 Co:    0.055071    1.938025
   1 Cl:   -0.055071    0.061975

  Mayer bond orders larger than 0.100000
B(  0-Co,  1-Cl) :   1.1557

Dispersion correction           -0.001461690
FINAL SINGLE POINT ENERGY     -1843.118619393422

DIPOLE MOMENT
-------------
                                X             Y             Z
Electronic contribution:      0.00000       0.00000      -3.66502
Nuclear contribution   :      0.00000       0.00000       1.86529
                        -----------------------------------------
Total Dipole Moment    :      0.00000       0.00000      -1.79973
                        -----------------------------------------
Magnitude (a.u.)       :      1.79973
Magnitude (Debye)      :      4.57454

Rotational constants in cm-1:     0.000000     0.174373     0.174373
Rotational constants in MHz :     0.000000  5227.567081  5227.567081

                             ****ORCA TERMINATED NORMALLY****
TOTAL RUN TIME: 0 days 0 hours 0 minutes 12 seconds 322 msec
