                         Program Version 4.2.0 -  RELEASE  -
|  1> #
|  2> # 42_CoS tpss/aug-cc-pvtz
|  3> #
|  4> ! tpss d3bj aug-cc-pvtz def2/j grid4 nofinalgrid
|  5>
|  6> *xyz 0 4
|  7>   Co  0.00000000000000      0.00000000000000      0.00920129654260
|  8>   S   0.00000000000000      0.00000000000000      1.99079870345740
|  9> *
| 10>
| 11> %pal
| 12> nprocs 24
| 13> end
| 14>
| 15>
| 16>                          ****END OF INPUT****

CARTESIAN COORDINATES (ANGSTROEM)
---------------------------------
  Co     0.000000    0.000000    0.009201
  S      0.000000    0.000000    1.990799

 Total Charge           Charge          ....    0
 Multiplicity           Mult            ....    4
 Number of Electrons    NEL             ....   43
 Basis Dimension        Dim             ....  143

ORBITAL ENERGIES
----------------
                 SPIN UP ORBITALS
  NO   OCC          E(Eh)            E(eV)
   0   1.0000    -276.691713     -7529.1643
   1   1.0000     -88.371184     -2404.7022
   2   1.0000     -32.485071      -883.9637
   3   1.0000     -28.142073      -765.7847
   4   1.0000     -28.142073      -765.7847
   5   1.0000     -28.133949      -765.5637
   6   1.0000      -7.726693      -210.2540
   7   1.0000      -5.705675      -155.2593
   8   1.0000      -5.705675      -155.2593
   9   1.0000      -5.703037      -155.1875
  10   1.0000      -3.668639       -99.8287
  11   1.0000      -2.373821       -64.5949
  12   1.0000      -2.373821       -64.5949
  13   1.0000      -2.364494       -64.3411
  14   1.0000      -0.614435       -16.7196
  15   1.0000      -0.306810        -8.3487
  16   1.0000      -0.305928        -8.3247
  17   1.0000      -0.305928        -8.3247
  18   1.0000      -0.298899        -8.1335
  19   1.0000      -0.256856        -6.9894
  20   1.0000      -0.222910        -6.0657
  21   1.0000      -0.212880        -5.7928
  22   1.0000      -0.212880        -5.7928
  23   0.0000      -0.129695        -3.5292
  24   0.0000      -0.025619        -0.6971
  25   0.0000      -0.025619        -0.6971
  26   0.0000       0.004684         0.1275
  27   0.0000       0.006419         0.1747

                 SPIN DOWN ORBITALS
  NO   OCC          E(Eh)            E(eV)
   0   1.0000    -276.691020     -7529.1454
   1   1.0000     -88.367776     -2404.6094
   2   1.0000     -32.446406      -882.9116
   3   1.0000     -28.108965      -764.8838
   4   1.0000     -28.108965      -764.8838
   5   1.0000     -28.105698      -764.7949
   6   1.0000      -7.723521      -210.1677
   7   1.0000      -5.701959      -155.1582
   8   1.0000      -5.699407      -155.0888
   9   1.0000      -5.699407      -155.0888
  10   1.0000      -3.572785       -97.2204
  11   1.0000      -2.280282       -62.0496
  12   1.0000      -2.272496       -61.8378
  13   1.0000      -2.272496       -61.8378
  14   1.0000      -0.591200       -16.0874
  15   1.0000      -0.285829        -7.7778
  16   1.0000      -0.235851        -6.4178
  17   1.0000      -0.235851        -6.4178
  18   1.0000      -0.228206        -6.2098
  19   1.0000      -0.194820        -5.3013
  20   0.0000      -0.155794        -4.2394
  21   0.0000      -0.146774        -3.9939
  22   0.0000      -0.146774        -3.9939
  23   0.0000      -0.106970        -2.9108
  24   0.0000      -0.013623        -0.3707

MULLIKEN ATOMIC CHARGES AND SPIN POPULATIONS
--------------------------------------------
   0 Co:    0.261950    2.273361
   1 S :   -0.261950    0.726639
Sum of atomic charges         :   -0.0000000

LOEWDIN ATOMIC CHARGES AND SPIN POPULATIONS
-------------------------------------------
   0 Co:    0.035871    2.326254
   1 S :   -0.035871    0.673746

  Mayer bond orders larger than 0.100000
B(  0-Co,  1-S ) :   2.3716

Dispersion correction           -0.001651092
FINAL SINGLE POINT ENERGY     -1781.088848040507

DIPOLE MOMENT
-------------
                                X             Y             Z
Electronic contribution:     -0.00000       0.00000      -4.84719
Nuclear contribution   :      0.00000       0.00000       3.17962
                        -----------------------------------------
Total Dipole Moment    :     -0.00000       0.00000      -1.66757
                        -----------------------------------------
Magnitude (a.u.)       :      1.66757
Magnitude (Debye)      :      4.23862

Rotational constants in cm-1:     0.000000     0.206757     0.206757
Rotational constants in MHz :     0.000000  6198.412278  6198.412278

                             ****ORCA TERMINATED NORMALLY****
TOTAL RUN TIME: 0 days 0 hours 0 minutes 16 seconds 225 msec
