                         Program Version 4.2.0 -  RELEASE  -
|  1> #
|  2> # 46_NiBr tpss/aug-cc-pvtz
|  3> #
|  4> ! tpss d3bj aug-cc-pvtz def2/j grid4 nofinalgrid
|  5>
|  6> *xyz 0 2
|  7>   Ni  0.00000000000000      0.00000000000000     -0.09144593844003
|  8>   Br  0.00000000000000      0.00000000000000      2.09144593844003
|  9> *
| 10>
| 11> %pal
| 12> nprocs 24
| 13> end
| 14>
| 15>
| 16>                          ****END OF INPUT****

CARTESIAN COORDINATES (ANGSTROEM)
---------------------------------
  Ni     0.000000    0.000000   -0.091446
  Br     0.000000    0.000000    2.091446

 Total Charge           Charge          ....    0
 Multiplicity           Mult            ....    2
 Number of Electrons    NEL             ....   63
 Basis Dimension        Dim             ....  152

ORBITAL ENERGIES
----------------
                 SPIN UP ORBITALS
  NO   OCC          E(Eh)            E(eV)
   0   1.0000    -481.712992    -13108.0769
   1   1.0000    -298.937321     -8134.4981
   2   1.0000     -61.930046     -1685.2022
   3   1.0000     -55.762959     -1517.3873
   4   1.0000     -55.762137     -1517.3649
   5   1.0000     -55.761355     -1517.3436
   6   1.0000     -35.343477      -961.7449
   7   1.0000     -30.789259      -837.8183
   8   1.0000     -30.788539      -837.7987
   9   1.0000     -30.763243      -837.1104
  10   1.0000      -8.455841      -230.0951
  11   1.0000      -6.295076      -171.2977
  12   1.0000      -6.291986      -171.2136
  13   1.0000      -6.289404      -171.1434
  14   1.0000      -3.882717      -105.6541
  15   1.0000      -2.517216       -68.4969
  16   1.0000      -2.505542       -68.1793
  17   1.0000      -2.463696       -67.0406
  18   1.0000      -2.463175       -67.0264
  19   1.0000      -2.461275       -66.9747
  20   1.0000      -2.458795       -66.9072
  21   1.0000      -2.458526       -66.8999
  22   1.0000      -2.450936       -66.6934
  23   1.0000      -0.685280       -18.6474
  24   1.0000      -0.315521        -8.5857
  25   1.0000      -0.293994        -8.0000
  26   1.0000      -0.265495        -7.2245
  27   1.0000      -0.236388        -6.4325
  28   1.0000      -0.221125        -6.0171
  29   1.0000      -0.207891        -5.6570
  30   1.0000      -0.201343        -5.4788
  31   1.0000      -0.199890        -5.4393
  32   0.0000      -0.129745        -3.5305
  33   0.0000      -0.021544        -0.5862
  34   0.0000      -0.015985        -0.4350
  35   0.0000       0.005547         0.1509
  36   0.0000       0.008630         0.2348

                 SPIN DOWN ORBITALS
  NO   OCC          E(Eh)            E(eV)
   0   1.0000    -481.712757    -13108.0705
   1   1.0000    -298.937140     -8134.4931
   2   1.0000     -61.929970     -1685.2002
   3   1.0000     -55.762897     -1517.3856
   4   1.0000     -55.761703     -1517.3531
   5   1.0000     -55.761269     -1517.3413
   6   1.0000     -35.325807      -961.2641
   7   1.0000     -30.771270      -837.3288
   8   1.0000     -30.769639      -837.2845
   9   1.0000     -30.757181      -836.9455
  10   1.0000      -8.455530      -230.0867
  11   1.0000      -6.294966      -171.2947
  12   1.0000      -6.291210      -171.1925
  13   1.0000      -6.289230      -171.1386
  14   1.0000      -3.840075      -104.4938
  15   1.0000      -2.465108       -67.0790
  16   1.0000      -2.462600       -67.0107
  17   1.0000      -2.461179       -66.9721
  18   1.0000      -2.459589       -66.9288
  19   1.0000      -2.458121       -66.8889
  20   1.0000      -2.457906       -66.8830
  21   1.0000      -2.452883       -66.7463
  22   1.0000      -2.432924       -66.2032
  23   1.0000      -0.682116       -18.5613
  24   1.0000      -0.311780        -8.4840
  25   1.0000      -0.260804        -7.0969
  26   1.0000      -0.259061        -7.0494
  27   1.0000      -0.215081        -5.8527
  28   1.0000      -0.186771        -5.0823
  29   1.0000      -0.183604        -4.9961
  30   1.0000      -0.174847        -4.7578
  31   0.0000      -0.160873        -4.3776
  32   0.0000      -0.122498        -3.3333
  33   0.0000      -0.020268        -0.5515
  34   0.0000      -0.018551        -0.5048
  35   0.0000       0.005450         0.1483

MULLIKEN ATOMIC CHARGES AND SPIN POPULATIONS
--------------------------------------------
   0 Ni:    0.418189    0.902634
   1 Br:   -0.418189    0.097366
Sum of atomic charges         :   -0.0000000

LOEWDIN ATOMIC CHARGES AND SPIN POPULATIONS
-------------------------------------------
   0 Ni:   -0.083470    0.887170
   1 Br:    0.083470    0.112830

  Mayer bond orders larger than 0.100000
B(  0-Ni,  1-Br) :   1.2769

Dispersion correction           -0.001720725
FINAL SINGLE POINT ENERGY     -4082.548886893978

DIPOLE MOMENT
-------------
                                X             Y             Z
Electronic contribution:      0.00000      -0.00000       3.82560
Nuclear contribution   :      0.00000       0.00000      -5.43759
                        -----------------------------------------
Total Dipole Moment    :      0.00000      -0.00000      -1.61199
                        -----------------------------------------
Magnitude (a.u.)       :      1.61199
Magnitude (Debye)      :      4.09736

Rotational constants in cm-1:     0.000000     0.104547     0.104547
Rotational constants in MHz :     0.000000  3134.234625  3134.234625

                             ****ORCA TERMINATED NORMALLY****
TOTAL RUN TIME: 0 days 0 hours 0 minutes 12 seconds 800 msec
