                         Program Version 4.2.0 -  RELEASE  -
|  1> #
|  2> # 49_CuH tpss/aug-cc-pvtz
|  3> #
|  4> ! tpss d3bj aug-cc-pvtz def2/j grid4 nofinalgrid
|  5>
|  6> *xyz 0 1
|  7>   Cu  0.00000000000000      0.00000000000000      0.26188782360473
|  8>   H   0.00000000000000      0.00000000000000      1.73811217639527
|  9> *
| 10>
| 11> %pal
| 12> nprocs 24
| 13> end
| 14>
| 15>
| 16>                          ****END OF INPUT****

CARTESIAN COORDINATES (ANGSTROEM)
---------------------------------
  Cu     0.000000    0.000000    0.261888
  H      0.000000    0.000000    1.738112

 Total Charge           Charge          ....    0
 Multiplicity           Mult            ....    1
 Number of Electrons    NEL             ....   30
 Basis Dimension        Dim             ....  116

ORBITAL ENERGIES
----------------

  NO   OCC          E(Eh)            E(eV)
   0   2.0000    -322.081954     -8764.2955
   1   2.0000     -38.375763     -1044.2576
   2   2.0000     -33.593220      -914.1180
   3   2.0000     -33.592748      -914.1051
   4   2.0000     -33.592748      -914.1051
   5   2.0000      -4.154006      -113.0362
   6   2.0000      -2.671154       -72.6858
   7   2.0000      -2.661713       -72.4289
   8   2.0000      -2.661713       -72.4289
   9   2.0000      -0.295402        -8.0383
  10   2.0000      -0.217372        -5.9150
  11   2.0000      -0.217372        -5.9150
  12   2.0000      -0.209130        -5.6907
  13   2.0000      -0.209130        -5.6907
  14   2.0000      -0.195831        -5.3288
  15   0.0000      -0.097466        -2.6522
  16   0.0000      -0.021604        -0.5879
  17   0.0000      -0.021603        -0.5879
  18   0.0000       0.009872         0.2686
  19   0.0000       0.020497         0.5577

MULLIKEN ATOMIC CHARGES
-----------------------
   0 Cu:    0.007763
   1 H :   -0.007763
Sum of atomic charges:   -0.0000000

LOEWDIN ATOMIC CHARGES
----------------------
   0 Cu:    0.492351
   1 H :   -0.492351

  Mayer bond orders larger than 0.100000
B(  0-Cu,  1-H ) :   1.0419

Dispersion correction           -0.000423583
FINAL SINGLE POINT ENERGY     -1641.170317277718

DIPOLE MOMENT
-------------
                                X             Y             Z
Electronic contribution:      0.00000      -0.00000      -2.48340
Nuclear contribution   :      0.00000       0.00000       1.48294
                        -----------------------------------------
Total Dipole Moment    :      0.00000      -0.00000      -1.00047
                        -----------------------------------------
Magnitude (a.u.)       :      1.00047
Magnitude (Debye)      :      2.54298

Rotational constants in cm-1:     0.000000     7.795898     7.795898
Rotational constants in MHz :     0.000000 233715.143643 233715.143643

                             ****ORCA TERMINATED NORMALLY****
TOTAL RUN TIME: 0 days 0 hours 0 minutes 6 seconds 393 msec
