                         Program Version 4.2.0 -  RELEASE  -
|  1> #
|  2> # 50_CuF tpss/aug-cc-pvtz
|  3> #
|  4> ! tpss d3bj aug-cc-pvtz def2/j grid4 nofinalgrid
|  5>
|  6> *xyz 0 1
|  7>   Cu  0.00000000000000      0.00000000000000      0.12224745624860
|  8>   F   0.00000000000000      0.00000000000000      1.87775254375140
|  9> *
| 10>
| 11> %pal
| 12> nprocs 24
| 13> end
| 14>
| 15>
| 16>                          ****END OF INPUT****

CARTESIAN COORDINATES (ANGSTROEM)
---------------------------------
  Cu     0.000000    0.000000    0.122247
  F      0.000000    0.000000    1.877753

 Total Charge           Charge          ....    0
 Multiplicity           Mult            ....    1
 Number of Electrons    NEL             ....   38
 Basis Dimension        Dim             ....  139

ORBITAL ENERGIES
----------------

  NO   OCC          E(Eh)            E(eV)
   0   2.0000    -322.103215     -8764.8741
   1   2.0000     -38.394095     -1044.7564
   2   2.0000     -33.611396      -914.6126
   3   2.0000     -33.611396      -914.6126
   4   2.0000     -33.611150      -914.6059
   5   2.0000     -24.326709      -661.9634
   6   2.0000      -4.177239      -113.6684
   7   2.0000      -2.693098       -73.2829
   8   2.0000      -2.685962       -73.0887
   9   2.0000      -2.685962       -73.0887
  10   2.0000      -0.997226       -27.1359
  11   2.0000      -0.346225        -9.4213
  12   2.0000      -0.301650        -8.2083
  13   2.0000      -0.301650        -8.2083
  14   2.0000      -0.233978        -6.3669
  15   2.0000      -0.233978        -6.3669
  16   2.0000      -0.217996        -5.9320
  17   2.0000      -0.217996        -5.9320
  18   2.0000      -0.214699        -5.8423
  19   0.0000      -0.139430        -3.7941
  20   0.0000      -0.016929        -0.4607
  21   0.0000      -0.016929        -0.4607
  22   0.0000       0.008190         0.2229
  23   0.0000       0.014926         0.4062

MULLIKEN ATOMIC CHARGES
-----------------------
   0 Cu:    0.644875
   1 F :   -0.644875
Sum of atomic charges:    0.0000000

LOEWDIN ATOMIC CHARGES
----------------------
   0 Cu:    0.404404
   1 F :   -0.404404

  Mayer bond orders larger than 0.100000
B(  0-Cu,  1-F ) :   0.6963

Dispersion correction           -0.000482815
FINAL SINGLE POINT ENERGY     -1740.491126838228

DIPOLE MOMENT
-------------
                                X             Y             Z
Electronic contribution:     -0.00000      -0.00000      -2.68445
Nuclear contribution   :      0.00000       0.00000       0.84427
                        -----------------------------------------
Total Dipole Moment    :     -0.00000      -0.00000      -1.84018
                        -----------------------------------------
Magnitude (a.u.)       :      1.84018
Magnitude (Debye)      :      4.67737

Rotational constants in cm-1:     0.000000     0.374004     0.374004
Rotational constants in MHz :     0.000000 11212.347169 11212.347169

                             ****ORCA TERMINATED NORMALLY****
TOTAL RUN TIME: 0 days 0 hours 0 minutes 6 seconds 744 msec
