                         Program Version 4.2.0 -  RELEASE  -
|  1> #
|  2> # 52_CuBr tpss/aug-cc-pvtz
|  3> #
|  4> ! tpss d3bj aug-cc-pvtz def2/j grid4 nofinalgrid
|  5>
|  6> *xyz 0 1
|  7>   Cu  0.00000000000000      0.00000000000000     -0.09600479667781
|  8>   Br  0.00000000000000      0.00000000000000      2.09600479667781
|  9> *
| 10>
| 11> %pal
| 12> nprocs 24
| 13> end
| 14>
| 15>
| 16>                          ****END OF INPUT****

CARTESIAN COORDINATES (ANGSTROEM)
---------------------------------
  Cu     0.000000    0.000000   -0.096005
  Br     0.000000    0.000000    2.096005

 Total Charge           Charge          ....    0
 Multiplicity           Mult            ....    1
 Number of Electrons    NEL             ....   64
 Basis Dimension        Dim             ....  152

ORBITAL ENERGIES
----------------

  NO   OCC          E(Eh)            E(eV)
   0   2.0000    -481.705082    -13107.8617
   1   2.0000    -322.105632     -8764.9398
   2   2.0000     -61.922081     -1684.9855
   3   2.0000     -55.755305     -1517.1790
   4   2.0000     -55.753526     -1517.1306
   5   2.0000     -55.753526     -1517.1306
   6   2.0000     -38.395308     -1044.7895
   7   2.0000     -33.612704      -914.6482
   8   2.0000     -33.612704      -914.6482
   9   2.0000     -33.612459      -914.6415
  10   2.0000      -8.447740      -229.8747
  11   2.0000      -6.288549      -171.1201
  12   2.0000      -6.281761      -170.9354
  13   2.0000      -6.281761      -170.9354
  14   2.0000      -4.178011      -113.6895
  15   2.0000      -2.693848       -73.3033
  16   2.0000      -2.687202       -73.1225
  17   2.0000      -2.687202       -73.1225
  18   2.0000      -2.456485       -66.8443
  19   2.0000      -2.454638       -66.7941
  20   2.0000      -2.454638       -66.7941
  21   2.0000      -2.449437       -66.6526
  22   2.0000      -2.449390       -66.6513
  23   2.0000      -0.676398       -18.4057
  24   2.0000      -0.313448        -8.5294
  25   2.0000      -0.269488        -7.3332
  26   2.0000      -0.269488        -7.3332
  27   2.0000      -0.236280        -6.4295
  28   2.0000      -0.236274        -6.4293
  29   2.0000      -0.226422        -6.1613
  30   2.0000      -0.216786        -5.8990
  31   2.0000      -0.216786        -5.8990
  32   0.0000      -0.134288        -3.6542
  33   0.0000      -0.020843        -0.5672
  34   0.0000      -0.020843        -0.5672
  35   0.0000       0.006108         0.1662
  36   0.0000       0.007832         0.2131

MULLIKEN ATOMIC CHARGES
-----------------------
   0 Cu:    0.493985
   1 Br:   -0.493985
Sum of atomic charges:   -0.0000000

LOEWDIN ATOMIC CHARGES
----------------------
   0 Cu:   -0.072283
   1 Br:    0.072283

  Mayer bond orders larger than 0.100000
B(  0-Cu,  1-Br) :   0.9813

Dispersion correction           -0.001512406
FINAL SINGLE POINT ENERGY     -4214.756517898633

DIPOLE MOMENT
-------------
                                X             Y             Z
Electronic contribution:      0.00000       0.00000       0.91657
Nuclear contribution   :      0.00000       0.00000      -2.68116
                        -----------------------------------------
Total Dipole Moment    :      0.00000       0.00000      -1.76459
                        -----------------------------------------
Magnitude (a.u.)       :      1.76459
Magnitude (Debye)      :      4.48522

Rotational constants in cm-1:     0.000000     0.099117     0.099117
Rotational constants in MHz :     0.000000  2971.467067  2971.467067

                             ****ORCA TERMINATED NORMALLY****
TOTAL RUN TIME: 0 days 0 hours 0 minutes 9 seconds 68 msec
