                         Program Version 4.2.0 -  RELEASE  -
|  1> #
|  2> # 54_CuS tpss/aug-cc-pvtz
|  3> #
|  4> ! tpss d3bj aug-cc-pvtz def2/j grid4 nofinalgrid
|  5>
|  6> *xyz 0 2
|  7>   Cu  0.00000000000000      0.00000000000000     -0.02892798555449
|  8>   S   0.00000000000000      0.00000000000000      2.02892798555449
|  9> *
| 10>
| 11> %pal
| 12> nprocs 24
| 13> end
| 14>
| 15>
| 16>                          ****END OF INPUT****

CARTESIAN COORDINATES (ANGSTROEM)
---------------------------------
  Cu     0.000000    0.000000   -0.028928
  S      0.000000    0.000000    2.028928

 Total Charge           Charge          ....    0
 Multiplicity           Mult            ....    2
 Number of Electrons    NEL             ....   45
 Basis Dimension        Dim             ....  143

ORBITAL ENERGIES
----------------
                 SPIN UP ORBITALS
  NO   OCC          E(Eh)            E(eV)
   0   1.0000    -322.126854     -8765.5173
   1   1.0000     -88.379815     -2404.9370
   2   1.0000     -38.423373     -1045.5531
   3   1.0000     -33.640874      -915.4147
   4   1.0000     -33.640855      -915.4142
   5   1.0000     -33.638646      -915.3541
   6   1.0000      -7.734147      -210.4568
   7   1.0000      -5.720605      -155.6656
   8   1.0000      -5.711297      -155.4123
   9   1.0000      -5.705477      -155.2539
  10   1.0000      -4.204298      -114.4048
  11   1.0000      -2.723746       -74.1169
  12   1.0000      -2.716366       -73.9161
  13   1.0000      -2.704517       -73.5937
  14   1.0000      -0.619761       -16.8645
  15   1.0000      -0.306251        -8.3335
  16   1.0000      -0.296267        -8.0618
  17   1.0000      -0.276698        -7.5293
  18   1.0000      -0.254405        -6.9227
  19   1.0000      -0.254169        -6.9163
  20   1.0000      -0.232176        -6.3178
  21   1.0000      -0.232156        -6.3173
  22   1.0000      -0.199977        -5.4416
  23   0.0000      -0.127717        -3.4753
  24   0.0000      -0.021689        -0.5902
  25   0.0000      -0.016574        -0.4510
  26   0.0000       0.005998         0.1632
  27   0.0000       0.008667         0.2359

                 SPIN DOWN ORBITALS
  NO   OCC          E(Eh)            E(eV)
   0   1.0000    -322.126804     -8765.5160
   1   1.0000     -88.375745     -2404.8263
   2   1.0000     -38.420182     -1045.4663
   3   1.0000     -33.637675      -915.3277
   4   1.0000     -33.637462      -915.3219
   5   1.0000     -33.637410      -915.3205
   6   1.0000      -7.730267      -210.3513
   7   1.0000      -5.708892      -155.3469
   8   1.0000      -5.708748      -155.3429
   9   1.0000      -5.703156      -155.1908
  10   1.0000      -4.197279      -114.2138
  11   1.0000      -2.714449       -73.8639
  12   1.0000      -2.707292       -73.6692
  13   1.0000      -2.702187       -73.5303
  14   1.0000      -0.587438       -15.9850
  15   1.0000      -0.299445        -8.1483
  16   1.0000      -0.272629        -7.4186
  17   1.0000      -0.268779        -7.3138
  18   1.0000      -0.250896        -6.8272
  19   1.0000      -0.250626        -6.8199
  20   1.0000      -0.227936        -6.2024
  21   1.0000      -0.191540        -5.2121
  22   0.0000      -0.174635        -4.7521
  23   0.0000      -0.123398        -3.3578
  24   0.0000      -0.016694        -0.4543
  25   0.0000      -0.015304        -0.4164
  26   0.0000       0.008818         0.2400

MULLIKEN ATOMIC CHARGES AND SPIN POPULATIONS
--------------------------------------------
   0 Cu:    0.403009    0.110833
   1 S :   -0.403009    0.889167
Sum of atomic charges         :   -0.0000000

LOEWDIN ATOMIC CHARGES AND SPIN POPULATIONS
-------------------------------------------
   0 Cu:   -0.029733    0.208782
   1 S :    0.029733    0.791218

  Mayer bond orders larger than 0.100000
B(  0-Cu,  1-S ) :   1.4048

Dispersion correction           -0.001527697
FINAL SINGLE POINT ENERGY     -2038.819445906579

DIPOLE MOMENT
-------------
                                X             Y             Z
Electronic contribution:      0.00000      -0.00000      -5.13791
Nuclear contribution   :      0.00000       0.00000       3.54103
                        -----------------------------------------
Total Dipole Moment    :      0.00000      -0.00000      -1.59688
                        -----------------------------------------
Magnitude (a.u.)       :      1.59688
Magnitude (Debye)      :      4.05896

Rotational constants in cm-1:     0.000000     0.186806     0.186806
Rotational constants in MHz :     0.000000  5600.307820  5600.307820

                             ****ORCA TERMINATED NORMALLY****
TOTAL RUN TIME: 0 days 0 hours 0 minutes 7 seconds 967 msec
