                         Program Version 4.2.0 -  RELEASE  -
|  1> #
|  2> # 55_ZnH tpss/aug-cc-pvtz
|  3> #
|  4> ! tpss d3bj aug-cc-pvtz def2/j grid4 nofinalgrid
|  5>
|  6> *xyz 0 2
|  7>   Zn  0.00000000000000      0.00000000000000      0.19402109306576
|  8>   H   0.00000000000000      0.00000000000000      1.80597890693424
|  9> *
| 10>
| 11> %pal
| 12> nprocs 24
| 13> end
| 14>
| 15>
| 16>                          ****END OF INPUT****

CARTESIAN COORDINATES (ANGSTROEM)
---------------------------------
  Zn     0.000000    0.000000    0.194021
  H      0.000000    0.000000    1.805979

 Total Charge           Charge          ....    0
 Multiplicity           Mult            ....    2
 Number of Electrons    NEL             ....   31
 Basis Dimension        Dim             ....  116

ORBITAL ENERGIES
----------------
                 SPIN UP ORBITALS
  NO   OCC          E(Eh)            E(eV)
   0   1.0000    -346.309141     -9423.5508
   1   1.0000     -41.766121     -1136.5139
   2   1.0000     -36.758638     -1000.2534
   3   1.0000     -36.758638     -1000.2534
   4   1.0000     -36.756487     -1000.1949
   5   1.0000      -4.674741      -127.2062
   6   1.0000      -3.083353       -83.9023
   7   1.0000      -3.083353       -83.9023
   8   1.0000      -3.078504       -83.7703
   9   1.0000      -0.428673       -11.6648
  10   1.0000      -0.418183       -11.3794
  11   1.0000      -0.418183       -11.3793
  12   1.0000      -0.414991       -11.2925
  13   1.0000      -0.414991       -11.2925
  14   1.0000      -0.308809        -8.4031
  15   1.0000      -0.171472        -4.6660
  16   0.0000      -0.055051        -1.4980
  17   0.0000      -0.055051        -1.4980
  18   0.0000      -0.000642        -0.0175
  19   0.0000       0.013003         0.3538
  20   0.0000       0.030776         0.8375

                 SPIN DOWN ORBITALS
  NO   OCC          E(Eh)            E(eV)
   0   1.0000    -346.308431     -9423.5315
   1   1.0000     -41.766088     -1136.5130
   2   1.0000     -36.758771     -1000.2570
   3   1.0000     -36.758771     -1000.2570
   4   1.0000     -36.755379     -1000.1647
   5   1.0000      -4.674054      -127.1875
   6   1.0000      -3.082477       -83.8785
   7   1.0000      -3.082477       -83.8785
   8   1.0000      -3.077507       -83.7432
   9   1.0000      -0.419892       -11.4258
  10   1.0000      -0.415336       -11.3019
  11   1.0000      -0.415336       -11.3019
  12   1.0000      -0.411302       -11.1921
  13   1.0000      -0.411302       -11.1921
  14   1.0000      -0.281935        -7.6718
  15   0.0000      -0.116660        -3.1745
  16   0.0000      -0.038103        -1.0368
  17   0.0000      -0.038103        -1.0368
  18   0.0000       0.009462         0.2575
  19   0.0000       0.027560         0.7499

MULLIKEN ATOMIC CHARGES AND SPIN POPULATIONS
--------------------------------------------
   0 Zn:    0.093546    0.664518
   1 H :   -0.093546    0.335482
Sum of atomic charges         :   -0.0000000

LOEWDIN ATOMIC CHARGES AND SPIN POPULATIONS
-------------------------------------------
   0 Zn:    0.537502    0.774267
   1 H :   -0.537502    0.225733

  Mayer bond orders larger than 0.100000
B(  0-Zn,  1-H ) :   0.8452

Dispersion correction           -0.000517697
FINAL SINGLE POINT ENERGY     -1779.993629617239

DIPOLE MOMENT
-------------
                                X             Y             Z
Electronic contribution:     -0.00000       0.00000      -1.82033
Nuclear contribution   :      0.00000       0.00000       1.61237
                        -----------------------------------------
Total Dipole Moment    :     -0.00000       0.00000      -0.20796
                        -----------------------------------------
Magnitude (a.u.)       :      0.20796
Magnitude (Debye)      :      0.52859

Rotational constants in cm-1:     0.000000     6.535423     6.535423
Rotational constants in MHz :     0.000000 195927.048997 195927.048997

                             ****ORCA TERMINATED NORMALLY****
TOTAL RUN TIME: 0 days 0 hours 0 minutes 5 seconds 829 msec
