                         Program Version 4.2.0 -  RELEASE  -
|  1> #
|  2> # 56_ZnF tpss/aug-cc-pvtz
|  3> #
|  4> ! tpss d3bj aug-cc-pvtz def2/j grid4 nofinalgrid
|  5>
|  6> *xyz 0 2
|  7>   Zn  0.00000000000000      0.00000000000000      0.10305473518103
|  8>   F   0.00000000000000      0.00000000000000      1.89694526481897
|  9> *
| 10>
| 11> %pal
| 12> nprocs 24
| 13> end
| 14>
| 15>
| 16>                          ****END OF INPUT****

CARTESIAN COORDINATES (ANGSTROEM)
---------------------------------
  Zn     0.000000    0.000000    0.103055
  F      0.000000    0.000000    1.896945

 Total Charge           Charge          ....    0
 Multiplicity           Mult            ....    2
 Number of Electrons    NEL             ....   39
 Basis Dimension        Dim             ....  139

ORBITAL ENERGIES
----------------
                 SPIN UP ORBITALS
  NO   OCC          E(Eh)            E(eV)
   0   1.0000    -346.327784     -9424.0581
   1   1.0000     -41.782090     -1136.9485
   2   1.0000     -36.775329     -1000.7076
   3   1.0000     -36.775329     -1000.7076
   4   1.0000     -36.771348     -1000.5992
   5   1.0000     -24.346409      -662.4995
   6   1.0000      -4.694473      -127.7431
   7   1.0000      -3.104100       -84.4669
   8   1.0000      -3.104100       -84.4669
   9   1.0000      -3.097406       -84.2847
  10   1.0000      -1.023896       -27.8616
  11   1.0000      -0.452471       -12.3124
  12   1.0000      -0.440709       -11.9923
  13   1.0000      -0.440709       -11.9923
  14   1.0000      -0.440456       -11.9854
  15   1.0000      -0.440456       -11.9854
  16   1.0000      -0.343144        -9.3374
  17   1.0000      -0.299892        -8.1605
  18   1.0000      -0.299892        -8.1605
  19   1.0000      -0.217166        -5.9094
  20   0.0000      -0.053617        -1.4590
  21   0.0000      -0.053617        -1.4590
  22   0.0000      -0.005474        -0.1490
  23   0.0000       0.001455         0.0396
  24   0.0000       0.029750         0.8095

                 SPIN DOWN ORBITALS
  NO   OCC          E(Eh)            E(eV)
   0   1.0000    -346.326763     -9424.0303
   1   1.0000     -41.782184     -1136.9510
   2   1.0000     -36.775605     -1000.7151
   3   1.0000     -36.775605     -1000.7151
   4   1.0000     -36.770210     -1000.5683
   5   1.0000     -24.342425      -662.3911
   6   1.0000      -4.693820      -127.7253
   7   1.0000      -3.102737       -84.4298
   8   1.0000      -3.102737       -84.4298
   9   1.0000      -3.096993       -84.2735
  10   1.0000      -1.015316       -27.6282
  11   1.0000      -0.444102       -12.0846
  12   1.0000      -0.436001       -11.8642
  13   1.0000      -0.436001       -11.8642
  14   1.0000      -0.435294       -11.8449
  15   1.0000      -0.435293       -11.8449
  16   1.0000      -0.326216        -8.8768
  17   1.0000      -0.296825        -8.0770
  18   1.0000      -0.296825        -8.0770
  19   0.0000      -0.167457        -4.5567
  20   0.0000      -0.026899        -0.7320
  21   0.0000      -0.026899        -0.7320
  22   0.0000       0.008410         0.2288
  23   0.0000       0.017316         0.4712

MULLIKEN ATOMIC CHARGES AND SPIN POPULATIONS
--------------------------------------------
   0 Zn:    0.632620    0.927292
   1 F :   -0.632620    0.072708
Sum of atomic charges         :   -0.0000000

LOEWDIN ATOMIC CHARGES AND SPIN POPULATIONS
-------------------------------------------
   0 Zn:    0.517564    0.822320
   1 F :   -0.517564    0.177680

  Mayer bond orders larger than 0.100000
B(  0-Zn,  1-F ) :   0.5824

Dispersion correction           -0.000543808
FINAL SINGLE POINT ENERGY     -1879.336546418904

DIPOLE MOMENT
-------------
                                X             Y             Z
Electronic contribution:      0.00000       0.00000      -1.85642
Nuclear contribution   :      0.00000       0.00000       0.74245
                        -----------------------------------------
Total Dipole Moment    :      0.00000       0.00000      -1.11397
                        -----------------------------------------
Magnitude (a.u.)       :      1.11397
Magnitude (Debye)      :      2.83148

Rotational constants in cm-1:     0.000000     0.355862     0.355862
Rotational constants in MHz :     0.000000 10668.470416 10668.470416

                             ****ORCA TERMINATED NORMALLY****
TOTAL RUN TIME: 0 days 0 hours 0 minutes 6 seconds 556 msec
