                         Program Version 4.2.0 -  RELEASE  -
|  1> #
|  2> # 57_ZnCl tpss/aug-cc-pvtz
|  3> #
|  4> ! tpss d3bj aug-cc-pvtz def2/j grid4 nofinalgrid
|  5>
|  6> *xyz 0 2
|  7>   Zn  0.00000000000000      0.00000000000000     -0.08307444970280
|  8>   Cl  0.00000000000000      0.00000000000000      2.08307444970280
|  9> *
| 10>
| 11> %pal
| 12> nprocs 24
| 13> end
| 14>
| 15>
| 16>                          ****END OF INPUT****

CARTESIAN COORDINATES (ANGSTROEM)
---------------------------------
  Zn     0.000000    0.000000   -0.083074
  Cl     0.000000    0.000000    2.083074

 Total Charge           Charge          ....    0
 Multiplicity           Mult            ....    2
 Number of Electrons    NEL             ....   47
 Basis Dimension        Dim             ....  143

ORBITAL ENERGIES
----------------
                 SPIN UP ORBITALS
  NO   OCC          E(Eh)            E(eV)
   0   1.0000    -346.338675     -9424.3545
   1   1.0000    -100.997985     -2748.2949
   2   1.0000     -41.793531     -1137.2598
   3   1.0000     -36.786240     -1001.0045
   4   1.0000     -36.786240     -1001.0045
   5   1.0000     -36.783875     -1000.9401
   6   1.0000      -9.222379      -250.9537
   7   1.0000      -7.000789      -190.5012
   8   1.0000      -6.994345      -190.3258
   9   1.0000      -6.994345      -190.3258
  10   1.0000      -4.704392      -128.0130
  11   1.0000      -3.113077       -84.7111
  12   1.0000      -3.113077       -84.7111
  13   1.0000      -3.108899       -84.5974
  14   1.0000      -0.732162       -19.9231
  15   1.0000      -0.452765       -12.3204
  16   1.0000      -0.448482       -12.2038
  17   1.0000      -0.448475       -12.2036
  18   1.0000      -0.448367       -12.2007
  19   1.0000      -0.448367       -12.2007
  20   1.0000      -0.337945        -9.1960
  21   1.0000      -0.274021        -7.4565
  22   1.0000      -0.274021        -7.4565
  23   1.0000      -0.212079        -5.7710
  24   0.0000      -0.059113        -1.6085
  25   0.0000      -0.059113        -1.6085
  26   0.0000      -0.006770        -0.1842
  27   0.0000      -0.001509        -0.0411
  28   0.0000       0.024937         0.6786

                 SPIN DOWN ORBITALS
  NO   OCC          E(Eh)            E(eV)
   0   1.0000    -346.337699     -9424.3279
   1   1.0000    -100.996763     -2748.2616
   2   1.0000     -41.793699     -1137.2644
   3   1.0000     -36.786483     -1001.0111
   4   1.0000     -36.786483     -1001.0111
   5   1.0000     -36.783001     -1000.9163
   6   1.0000      -9.221334      -250.9253
   7   1.0000      -6.997395      -190.4088
   8   1.0000      -6.993742      -190.3094
   9   1.0000      -6.993742      -190.3094
  10   1.0000      -4.703926      -128.0003
  11   1.0000      -3.112011       -84.6821
  12   1.0000      -3.112011       -84.6821
  13   1.0000      -3.108515       -84.5870
  14   1.0000      -0.724679       -19.7195
  15   1.0000      -0.446554       -12.1513
  16   1.0000      -0.443827       -12.0772
  17   1.0000      -0.443820       -12.0770
  18   1.0000      -0.443777       -12.0758
  19   1.0000      -0.443777       -12.0758
  20   1.0000      -0.323185        -8.7943
  21   1.0000      -0.271523        -7.3885
  22   1.0000      -0.271523        -7.3885
  23   0.0000      -0.164656        -4.4805
  24   0.0000      -0.033837        -0.9208
  25   0.0000      -0.033837        -0.9208
  26   0.0000       0.003402         0.0926
  27   0.0000       0.013489         0.3671

MULLIKEN ATOMIC CHARGES AND SPIN POPULATIONS
--------------------------------------------
   0 Zn:    0.501267    0.863602
   1 Cl:   -0.501267    0.136398
Sum of atomic charges         :   -0.0000000

LOEWDIN ATOMIC CHARGES AND SPIN POPULATIONS
-------------------------------------------
   0 Zn:    0.220581    0.791725
   1 Cl:   -0.220581    0.208275

  Mayer bond orders larger than 0.100000
B(  0-Zn,  1-Cl) :   0.8241

Dispersion correction           -0.001530649
FINAL SINGLE POINT ENERGY     -2239.713503541172

DIPOLE MOMENT
-------------
                                X             Y             Z
Electronic contribution:      0.00000      -0.00000      -2.98675
Nuclear contribution   :      0.00000       0.00000       1.94334
                        -----------------------------------------
Total Dipole Moment    :      0.00000      -0.00000      -1.04341
                        -----------------------------------------
Magnitude (a.u.)       :      1.04341
Magnitude (Debye)      :      2.65215

Rotational constants in cm-1:     0.000000     0.156288     0.156288
Rotational constants in MHz :     0.000000  4685.390286  4685.390286

                             ****ORCA TERMINATED NORMALLY****
TOTAL RUN TIME: 0 days 0 hours 0 minutes 7 seconds 265 msec
