                         Program Version 4.2.0 -  RELEASE  -
|  1> #
|  2> # 58_ZnBr tpss/aug-cc-pvtz
|  3> #
|  4> ! tpss d3bj aug-cc-pvtz def2/j grid4 nofinalgrid
|  5>
|  6> *xyz 0 2
|  7>   Zn  0.00000000000000      0.00000000000000     -0.15390624723259
|  8>   Br  0.00000000000000      0.00000000000000      2.15390624723258
|  9> *
| 10>
| 11> %pal
| 12> nprocs 24
| 13> end
| 14>
| 15>
| 16>                          ****END OF INPUT****

CARTESIAN COORDINATES (ANGSTROEM)
---------------------------------
  Zn     0.000000    0.000000   -0.153906
  Br     0.000000    0.000000    2.153906

 Total Charge           Charge          ....    0
 Multiplicity           Mult            ....    2
 Number of Electrons    NEL             ....   65
 Basis Dimension        Dim             ....  152

ORBITAL ENERGIES
----------------
                 SPIN UP ORBITALS
  NO   OCC          E(Eh)            E(eV)
   0   1.0000    -481.719312    -13108.2489
   1   1.0000    -346.338843     -9424.3590
   2   1.0000     -61.936617     -1685.3810
   3   1.0000     -55.770125     -1517.5823
   4   1.0000     -55.768091     -1517.5269
   5   1.0000     -55.768091     -1517.5269
   6   1.0000     -41.793790     -1137.2669
   7   1.0000     -36.786332     -1001.0070
   8   1.0000     -36.786332     -1001.0070
   9   1.0000     -36.784452     -1000.9558
  10   1.0000      -8.462535      -230.2773
  11   1.0000      -6.303401      -171.5243
  12   1.0000      -6.296609      -171.3394
  13   1.0000      -6.296609      -171.3394
  14   1.0000      -4.704227      -128.0085
  15   1.0000      -3.112664       -84.6999
  16   1.0000      -3.112664       -84.6999
  17   1.0000      -3.109154       -84.6044
  18   1.0000      -2.471517       -67.2534
  19   1.0000      -2.469649       -67.2026
  20   1.0000      -2.469649       -67.2026
  21   1.0000      -2.464377       -67.0591
  22   1.0000      -2.464334       -67.0579
  23   1.0000      -0.696831       -18.9617
  24   1.0000      -0.450649       -12.2628
  25   1.0000      -0.447884       -12.1875
  26   1.0000      -0.447875       -12.1873
  27   1.0000      -0.447690       -12.1823
  28   1.0000      -0.447690       -12.1823
  29   1.0000      -0.329706        -8.9718
  30   1.0000      -0.259822        -7.0701
  31   1.0000      -0.259822        -7.0701
  32   1.0000      -0.208673        -5.6783
  33   0.0000      -0.060534        -1.6472
  34   0.0000      -0.060534        -1.6472
  35   0.0000      -0.009374        -0.2551
  36   0.0000      -0.003109        -0.0846
  37   0.0000       0.023271         0.6332

                 SPIN DOWN ORBITALS
  NO   OCC          E(Eh)            E(eV)
   0   1.0000    -481.718803    -13108.2350
   1   1.0000    -346.337903     -9424.3335
   2   1.0000     -61.936450     -1685.3765
   3   1.0000     -55.769213     -1517.5574
   4   1.0000     -55.767925     -1517.5224
   5   1.0000     -55.767925     -1517.5224
   6   1.0000     -41.793978     -1137.2720
   7   1.0000     -36.786567     -1001.0134
   8   1.0000     -36.786567     -1001.0134
   9   1.0000     -36.783673     -1000.9346
  10   1.0000      -8.461850      -230.2587
  11   1.0000      -6.301767      -171.4798
  12   1.0000      -6.296267      -171.3301
  13   1.0000      -6.296267      -171.3301
  14   1.0000      -4.703831      -127.9977
  15   1.0000      -3.111710       -84.6739
  16   1.0000      -3.111710       -84.6739
  17   1.0000      -3.108801       -84.5948
  18   1.0000      -2.469750       -67.2053
  19   1.0000      -2.468276       -67.1652
  20   1.0000      -2.468276       -67.1652
  21   1.0000      -2.464138       -67.0526
  22   1.0000      -2.464095       -67.0514
  23   1.0000      -0.689751       -18.7691
  24   1.0000      -0.444894       -12.1062
  25   1.0000      -0.443475       -12.0676
  26   1.0000      -0.443466       -12.0673
  27   1.0000      -0.443256       -12.0616
  28   1.0000      -0.443256       -12.0616
  29   1.0000      -0.315003        -8.5717
  30   1.0000      -0.257086        -6.9957
  31   1.0000      -0.257086        -6.9957
  32   0.0000      -0.163124        -4.4388
  33   0.0000      -0.036352        -0.9892
  34   0.0000      -0.036352        -0.9892
  35   0.0000      -0.000028        -0.0008
  36   0.0000       0.011008         0.2995

MULLIKEN ATOMIC CHARGES AND SPIN POPULATIONS
--------------------------------------------
   0 Zn:    0.432768    0.822328
   1 Br:   -0.432768    0.177672
Sum of atomic charges         :    0.0000000

LOEWDIN ATOMIC CHARGES AND SPIN POPULATIONS
-------------------------------------------
   0 Zn:    0.158171    0.763886
   1 Br:   -0.158171    0.236114

  Mayer bond orders larger than 0.100000
B(  0-Zn,  1-Br) :   0.8662

Dispersion correction           -0.001727282
FINAL SINGLE POINT ENERGY     -4353.587690885357

DIPOLE MOMENT
-------------
                                X             Y             Z
Electronic contribution:      0.00000       0.00000       2.28314
Nuclear contribution   :      0.00000       0.00000      -3.26305
                        -----------------------------------------
Total Dipole Moment    :      0.00000       0.00000      -0.97990
                        -----------------------------------------
Magnitude (a.u.)       :      0.97990
Magnitude (Debye)      :      2.49072

Rotational constants in cm-1:     0.000000     0.088026     0.088026
Rotational constants in MHz :     0.000000  2638.947188  2638.947188

                             ****ORCA TERMINATED NORMALLY****
TOTAL RUN TIME: 0 days 0 hours 0 minutes 9 seconds 34 msec
