                         Program Version 4.2.0 -  RELEASE  -
|  1> #
|  2> # 59_ZnO tpss/aug-cc-pvtz
|  3> #
|  4> ! tpss d3bj aug-cc-pvtz def2/j grid4 nofinalgrid
|  5>
|  6> *xyz 0 1
|  7>   Zn  0.00000000000000      0.00000000000000      0.14991809043900
|  8>   O   0.00000000000000      0.00000000000000      1.85008190956100
|  9> *
| 10>
| 11> %pal
| 12> nprocs 24
| 13> end
| 14>
| 15>
| 16>                          ****END OF INPUT****

CARTESIAN COORDINATES (ANGSTROEM)
---------------------------------
  Zn     0.000000    0.000000    0.149918
  O      0.000000    0.000000    1.850082

 Total Charge           Charge          ....    0
 Multiplicity           Mult            ....    1
 Number of Electrons    NEL             ....   38
 Basis Dimension        Dim             ....  139

ORBITAL ENERGIES
----------------

  NO   OCC          E(Eh)            E(eV)
   0   2.0000    -346.347957     -9424.6070
   1   2.0000     -41.805396     -1137.5827
   2   2.0000     -36.797993     -1001.3243
   3   2.0000     -36.797993     -1001.3243
   4   2.0000     -36.794901     -1001.2402
   5   2.0000     -18.854296      -513.0515
   6   2.0000      -4.715728      -128.3215
   7   2.0000      -3.124085       -85.0107
   8   2.0000      -3.121591       -84.9428
   9   2.0000      -3.121591       -84.9428
  10   2.0000      -0.800649       -21.7868
  11   2.0000      -0.460041       -12.5184
  12   2.0000      -0.460041       -12.5184
  13   2.0000      -0.459519       -12.5042
  14   2.0000      -0.453036       -12.3277
  15   2.0000      -0.453036       -12.3277
  16   2.0000      -0.282247        -7.6803
  17   2.0000      -0.211408        -5.7527
  18   2.0000      -0.211408        -5.7527
  19   0.0000      -0.178999        -4.8708
  20   0.0000      -0.035626        -0.9694
  21   0.0000      -0.035626        -0.9694
  22   0.0000      -0.000367        -0.0100
  23   0.0000       0.011852         0.3225

MULLIKEN ATOMIC CHARGES
-----------------------
   0 Zn:    0.797783
   1 O :   -0.797783
Sum of atomic charges:   -0.0000000

LOEWDIN ATOMIC CHARGES
----------------------
   0 Zn:    0.681809
   1 O :   -0.681809

  Mayer bond orders larger than 0.100000
B(  0-Zn,  1-O ) :   1.6122

Dispersion correction           -0.000740094
FINAL SINGLE POINT ENERGY     -1854.616558425860

DIPOLE MOMENT
-------------
                                X             Y             Z
Electronic contribution:     -0.00000      -0.00000      -3.87651
Nuclear contribution   :      0.00000       0.00000       1.70040
                        -----------------------------------------
Total Dipole Moment    :     -0.00000      -0.00000      -2.17610
                        -----------------------------------------
Magnitude (a.u.)       :      2.17610
Magnitude (Debye)      :      5.53122

Rotational constants in cm-1:     0.000000     0.453722     0.453722
Rotational constants in MHz :     0.000000 13602.247054 13602.247054

                             ****ORCA TERMINATED NORMALLY****
TOTAL RUN TIME: 0 days 0 hours 0 minutes 8 seconds 490 msec
