                         Program Version 4.2.0 -  RELEASE  -
|  1> #
|  2> # 62_Ti tpss/aug-cc-pvtz
|  3> #
|  4> ! tpss d3bj aug-cc-pvtz def2/j grid4 nofinalgrid
|  5>
|  6> *xyz 0 3
|  7> Ti 0.0 0.0 0.0
|  8> *
|  9>
| 10> %pal
| 11> nprocs 24
| 12> end
| 13>
| 14>
| 15>                          ****END OF INPUT****

CARTESIAN COORDINATES (ANGSTROEM)
---------------------------------
  Ti     0.000000    0.000000    0.000000

 Total Charge           Charge          ....    0
 Multiplicity           Mult            ....    3
 Number of Electrons    NEL             ....   22
 Basis Dimension        Dim             ....   93

ORBITAL ENERGIES
----------------
                 SPIN UP ORBITALS
  NO   OCC          E(Eh)            E(eV)
   0   1.0000    -178.155281     -4847.8517
   1   1.0000     -19.556516      -532.1598
   2   1.0000     -16.284362      -443.1200
   3   1.0000     -16.284237      -443.1166
   4   1.0000     -16.284204      -443.1157
   5   1.0000      -2.276714       -61.9525
   6   1.0000      -1.415632       -38.5213
   7   1.0000      -1.415549       -38.5191
   8   1.0000      -1.413155       -38.4539
   9   1.0000      -0.172922        -4.7054
  10   1.0000      -0.172843        -4.7033
  11   1.0000      -0.161682        -4.3996
  12   0.0000      -0.118088        -3.2133
  13   0.0000      -0.118043        -3.2121
  14   0.0000      -0.113092        -3.0774
  15   0.0000      -0.055600        -1.5130
  16   0.0000      -0.055562        -1.5119

                 SPIN DOWN ORBITALS
  NO   OCC          E(Eh)            E(eV)
   0   1.0000    -178.155131     -4847.8476
   1   1.0000     -19.538562      -531.6713
   2   1.0000     -16.272866      -442.8072
   3   1.0000     -16.268381      -442.6852
   4   1.0000     -16.268340      -442.6840
   5   1.0000      -2.219765       -60.4029
   6   1.0000      -1.362225       -37.0680
   7   1.0000      -1.354615       -36.8609
   8   1.0000      -1.354535       -36.8588
   9   1.0000      -0.142853        -3.8872
  10   0.0000      -0.103594        -2.8189
  11   0.0000      -0.095983        -2.6118
  12   0.0000      -0.095934        -2.6105
  13   0.0000      -0.070393        -1.9155
  14   0.0000      -0.070347        -1.9142

MULLIKEN ATOMIC CHARGES AND SPIN POPULATIONS
--------------------------------------------
   0 Ti:   -0.000000    2.000000
Sum of atomic charges         :   -0.0000000

LOEWDIN ATOMIC CHARGES AND SPIN POPULATIONS
-------------------------------------------
   0 Ti:   -0.000000    2.000000

Dispersion correction            0.000000000
FINAL SINGLE POINT ENERGY      -849.386100855426

DIPOLE MOMENT
-------------
                                X             Y             Z
Electronic contribution:      0.00000      -0.00000      -0.00000
Nuclear contribution   :      0.00000       0.00000       0.00000
                        -----------------------------------------
Total Dipole Moment    :      0.00000      -0.00000      -0.00000
                        -----------------------------------------
Magnitude (a.u.)       :      0.00000
Magnitude (Debye)      :      0.00000

Rotational constants in cm-1:     0.000000     0.000000     0.000000
Rotational constants in MHz :     0.000000     0.000000     0.000000

                             ****ORCA TERMINATED NORMALLY****
TOTAL RUN TIME: 0 days 0 hours 0 minutes 10 seconds 927 msec
