                         Program Version 4.2.0 -  RELEASE  -
|  1> #
|  2> # 65_Mn tpss/aug-cc-pvtz
|  3> #
|  4> ! tpss d3bj aug-cc-pvtz def2/j grid4 nofinalgrid
|  5>
|  6> *xyz 0 6
|  7> Mn 0.0 0.0 0.0
|  8> *
|  9>
| 10> %pal
| 11> nprocs 24
| 12> end
| 13>
| 14>
| 15>                          ****END OF INPUT****

CARTESIAN COORDINATES (ANGSTROEM)
---------------------------------
  Mn     0.000000    0.000000    0.000000

 Total Charge           Charge          ....    0
 Multiplicity           Mult            ....    6
 Number of Electrons    NEL             ....   25
 Basis Dimension        Dim             ....   93

ORBITAL ENERGIES
----------------
                 SPIN UP ORBITALS
  NO   OCC          E(Eh)            E(eV)
   0   1.0000    -234.718192     -6387.0067
   1   1.0000     -27.019481      -735.2375
   2   1.0000     -23.105181      -628.7239
   3   1.0000     -23.104771      -628.7128
   4   1.0000     -23.104749      -628.7122
   5   1.0000      -3.179598       -86.5213
   6   1.0000      -2.062673       -56.1282
   7   1.0000      -2.062641       -56.1273
   8   1.0000      -2.059872       -56.0520
   9   1.0000      -0.302701        -8.2369
  10   1.0000      -0.302701        -8.2369
  11   1.0000      -0.299827        -8.1587
  12   1.0000      -0.299825        -8.1586
  13   1.0000      -0.296975        -8.0811
  14   1.0000      -0.198313        -5.3964
  15   0.0000      -0.057676        -1.5694
  16   0.0000      -0.057658        -1.5690
  17   0.0000      -0.051807        -1.4097
  18   0.0000       0.002928         0.0797
  19   0.0000       0.026203         0.7130

                 SPIN DOWN ORBITALS
  NO   OCC          E(Eh)            E(eV)
   0   1.0000    -234.717237     -6386.9807
   1   1.0000     -26.947294      -733.2732
   2   1.0000     -23.047830      -627.1633
   3   1.0000     -23.046295      -627.1216
   4   1.0000     -23.046278      -627.1211
   5   1.0000      -2.987243       -81.2870
   6   1.0000      -1.870098       -50.8880
   7   1.0000      -1.870089       -50.8877
   8   1.0000      -1.866726       -50.7962
   9   1.0000      -0.157787        -4.2936
  10   0.0000      -0.130585        -3.5534
  11   0.0000      -0.127718        -3.4754
  12   0.0000      -0.127718        -3.4754
  13   0.0000      -0.127032        -3.4567
  14   0.0000      -0.127000        -3.4559

MULLIKEN ATOMIC CHARGES AND SPIN POPULATIONS
--------------------------------------------
   0 Mn:   -0.000000    5.000000
Sum of atomic charges         :   -0.0000000

LOEWDIN ATOMIC CHARGES AND SPIN POPULATIONS
-------------------------------------------
   0 Mn:   -0.000000    5.000000

Dispersion correction            0.000000000
FINAL SINGLE POINT ENERGY     -1151.015897717618

DIPOLE MOMENT
-------------
                                X             Y             Z
Electronic contribution:      0.00000      -0.00000      -0.00000
Nuclear contribution   :      0.00000       0.00000       0.00000
                        -----------------------------------------
Total Dipole Moment    :      0.00000      -0.00000      -0.00000
                        -----------------------------------------
Magnitude (a.u.)       :      0.00000
Magnitude (Debye)      :      0.00000

Rotational constants in cm-1:     0.000000     0.000000     0.000000
Rotational constants in MHz :     0.000000     0.000000     0.000000

                             ****ORCA TERMINATED NORMALLY****
TOTAL RUN TIME: 0 days 0 hours 0 minutes 15 seconds 38 msec
