                         Program Version 4.2.0 -  RELEASE  -
|  1> #
|  2> # 66_Fe tpss/aug-cc-pvtz
|  3> #
|  4> ! tpss d3bj aug-cc-pvtz def2/j grid4 nofinalgrid
|  5>
|  6> *xyz 0 5
|  7> Fe 0.0 0.0 0.0
|  8> *
|  9>
| 10> %pal
| 11> nprocs 24
| 12> end
| 13>
| 14>
| 15>                          ****END OF INPUT****

CARTESIAN COORDINATES (ANGSTROEM)
---------------------------------
  Fe     0.000000    0.000000    0.000000

 Total Charge           Charge          ....    0
 Multiplicity           Mult            ....    5
 Number of Electrons    NEL             ....   26
 Basis Dimension        Dim             ....   93

ORBITAL ENERGIES
----------------
                 SPIN UP ORBITALS
  NO   OCC          E(Eh)            E(eV)
   0   1.0000    -255.204880     -6944.4778
   1   1.0000     -29.610021      -805.7296
   2   1.0000     -25.485126      -693.4855
   3   1.0000     -25.479077      -693.3209
   4   1.0000     -25.479049      -693.3202
   5   1.0000      -3.338489       -90.8449
   6   1.0000      -2.145569       -58.3839
   7   1.0000      -2.127733       -57.8985
   8   1.0000      -2.127682       -57.8972
   9   1.0000      -0.236630        -6.4390
  10   1.0000      -0.236617        -6.4387
  11   1.0000      -0.226906        -6.1744
  12   1.0000      -0.216146        -5.8816
  13   1.0000      -0.188927        -5.1410
  14   1.0000      -0.176222        -4.7953
  15   0.0000      -0.047125        -1.2823
  16   0.0000      -0.038099        -1.0367
  17   0.0000      -0.038095        -1.0366
  18   0.0000       0.003379         0.0920
  19   0.0000       0.026831         0.7301

                 SPIN DOWN ORBITALS
  NO   OCC          E(Eh)            E(eV)
   0   1.0000    -255.203606     -6944.4432
   1   1.0000     -29.558430      -804.3258
   2   1.0000     -25.439736      -692.2504
   3   1.0000     -25.439126      -692.2338
   4   1.0000     -25.439107      -692.2333
   5   1.0000      -3.205664       -87.2306
   6   1.0000      -2.007199       -54.6187
   7   1.0000      -1.996160       -54.3183
   8   1.0000      -1.996151       -54.3180
   9   1.0000      -0.139536        -3.7970
  10   1.0000      -0.138128        -3.7587
  11   0.0000      -0.122384        -3.3302
  12   0.0000      -0.077857        -2.1186
  13   0.0000      -0.077826        -2.1177
  14   0.0000      -0.066623        -1.8129
  15   0.0000      -0.020138        -0.5480

MULLIKEN ATOMIC CHARGES AND SPIN POPULATIONS
--------------------------------------------
   0 Fe:   -0.000000    4.000000
Sum of atomic charges         :   -0.0000000

LOEWDIN ATOMIC CHARGES AND SPIN POPULATIONS
-------------------------------------------
   0 Fe:   -0.000000    4.000000

Dispersion correction            0.000000000
FINAL SINGLE POINT ENERGY     -1263.726560230494

DIPOLE MOMENT
-------------
                                X             Y             Z
Electronic contribution:      0.00000       0.00000       0.00000
Nuclear contribution   :      0.00000       0.00000       0.00000
                        -----------------------------------------
Total Dipole Moment    :      0.00000       0.00000       0.00000
                        -----------------------------------------
Magnitude (a.u.)       :      0.00000
Magnitude (Debye)      :      0.00000

Rotational constants in cm-1:     0.000000     0.000000     0.000000
Rotational constants in MHz :     0.000000     0.000000     0.000000

                             ****ORCA TERMINATED NORMALLY****
TOTAL RUN TIME: 0 days 0 hours 0 minutes 14 seconds 916 msec
