                         Program Version 4.2.0 -  RELEASE  -
|  1> #
|  2> # 68_Ni tpss/aug-cc-pvtz
|  3> #
|  4> ! tpss d3bj aug-cc-pvtz def2/j grid4 nofinalgrid
|  5>
|  6> *xyz 0 3
|  7> Ni 0.0 0.0 0.0
|  8> *
|  9>
| 10> %pal
| 11> nprocs 24
| 12> end
| 13>
| 14>
| 15>                          ****END OF INPUT****

CARTESIAN COORDINATES (ANGSTROEM)
---------------------------------
  Ni     0.000000    0.000000    0.000000

 Total Charge           Charge          ....    0
 Multiplicity           Mult            ....    3
 Number of Electrons    NEL             ....   28
 Basis Dimension        Dim             ....   93

ORBITAL ENERGIES
----------------
                 SPIN UP ORBITALS
  NO   OCC          E(Eh)            E(eV)
   0   1.0000    -298.896817     -8133.3959
   1   1.0000     -35.299626      -960.5517
   2   1.0000     -30.758399      -836.9786
   3   1.0000     -30.730643      -836.2233
   4   1.0000     -30.721330      -835.9699
   5   1.0000      -3.838341      -104.4466
   6   1.0000      -2.491171       -67.7882
   7   1.0000      -2.434730       -66.2524
   8   1.0000      -2.415827       -65.7380
   9   1.0000      -0.238323        -6.4851
  10   1.0000      -0.191008        -5.1976
  11   1.0000      -0.184743        -5.0271
  12   1.0000      -0.174420        -4.7462
  13   1.0000      -0.166271        -4.5245
  14   1.0000      -0.165681        -4.5084
  15   0.0000      -0.036823        -1.0020
  16   0.0000      -0.032434        -0.8826
  17   0.0000      -0.030850        -0.8395
  18   0.0000       0.004486         0.1221
  19   0.0000       0.031987         0.8704

                 SPIN DOWN ORBITALS
  NO   OCC          E(Eh)            E(eV)
   0   1.0000    -298.895621     -8133.3633
   1   1.0000     -35.282617      -960.0888
   2   1.0000     -30.734798      -836.3364
   3   1.0000     -30.719563      -835.9218
   4   1.0000     -30.714133      -835.7741
   5   1.0000      -3.795818      -103.2894
   6   1.0000      -2.416602       -65.7591
   7   1.0000      -2.401993       -65.3616
   8   1.0000      -2.395244       -65.1779
   9   1.0000      -0.175448        -4.7742
  10   1.0000      -0.163936        -4.4609
  11   1.0000      -0.132293        -3.5999
  12   1.0000      -0.131417        -3.5760
  13   0.0000      -0.127148        -3.4599
  14   0.0000      -0.117936        -3.2092
  15   0.0000      -0.006533        -0.1778
  16   0.0000      -0.006310        -0.1717
  17   0.0000      -0.006262        -0.1704

MULLIKEN ATOMIC CHARGES AND SPIN POPULATIONS
--------------------------------------------
   0 Ni:   -0.000000    2.000000
Sum of atomic charges         :   -0.0000000

LOEWDIN ATOMIC CHARGES AND SPIN POPULATIONS
-------------------------------------------
   0 Ni:    0.000000    2.000000

Dispersion correction            0.000000000
FINAL SINGLE POINT ENERGY     -1508.349862054197

DIPOLE MOMENT
-------------
                                X             Y             Z
Electronic contribution:      0.00000       0.00000       0.00000
Nuclear contribution   :      0.00000       0.00000       0.00000
                        -----------------------------------------
Total Dipole Moment    :      0.00000       0.00000       0.00000
                        -----------------------------------------
Magnitude (a.u.)       :      0.00000
Magnitude (Debye)      :      0.00000

Rotational constants in cm-1:     0.000000     0.000000     0.000000
Rotational constants in MHz :     0.000000     0.000000     0.000000

                             ****ORCA TERMINATED NORMALLY****
TOTAL RUN TIME: 0 days 0 hours 0 minutes 6 seconds 145 msec
