                         Program Version 4.2.0 -  RELEASE  -
|  1> #
|  2> # 69_Cu tpss/aug-cc-pvtz
|  3> #
|  4> ! tpss d3bj aug-cc-pvtz def2/j grid4 nofinalgrid
|  5>
|  6> *xyz 0 2
|  7> Cu 0.0 0.0 0.0
|  8> *
|  9>
| 10> %pal
| 11> nprocs 24
| 12> end
| 13>
| 14>
| 15>                          ****END OF INPUT****

CARTESIAN COORDINATES (ANGSTROEM)
---------------------------------
  Cu     0.000000    0.000000    0.000000

 Total Charge           Charge          ....    0
 Multiplicity           Mult            ....    2
 Number of Electrons    NEL             ....   29
 Basis Dimension        Dim             ....   93

ORBITAL ENERGIES
----------------
                 SPIN UP ORBITALS
  NO   OCC          E(Eh)            E(eV)
   0   1.0000    -322.051956     -8763.4793
   1   1.0000     -38.337283     -1043.2105
   2   1.0000     -33.555031      -913.0788
   3   1.0000     -33.555031      -913.0788
   4   1.0000     -33.555031      -913.0788
   5   1.0000      -4.118889      -112.0807
   6   1.0000      -2.630946       -71.5917
   7   1.0000      -2.630946       -71.5917
   8   1.0000      -2.630946       -71.5917
   9   1.0000      -0.188095        -5.1183
  10   1.0000      -0.188095        -5.1183
  11   1.0000      -0.188095        -5.1183
  12   1.0000      -0.188095        -5.1183
  13   1.0000      -0.188095        -5.1183
  14   1.0000      -0.176505        -4.8029
  15   0.0000      -0.031503        -0.8573
  16   0.0000      -0.031503        -0.8572
  17   0.0000      -0.031503        -0.8572
  18   0.0000       0.004954         0.1348
  19   0.0000       0.035445         0.9645

                 SPIN DOWN ORBITALS
  NO   OCC          E(Eh)            E(eV)
   0   1.0000    -322.050975     -8763.4526
   1   1.0000     -38.338745     -1043.2503
   2   1.0000     -33.556037      -913.1062
   3   1.0000     -33.556037      -913.1062
   4   1.0000     -33.556037      -913.1062
   5   1.0000      -4.121319      -112.1468
   6   1.0000      -2.632783       -71.6417
   7   1.0000      -2.632783       -71.6417
   8   1.0000      -2.632783       -71.6417
   9   1.0000      -0.181888        -4.9494
  10   1.0000      -0.181888        -4.9494
  11   1.0000      -0.181888        -4.9494
  12   1.0000      -0.181888        -4.9494
  13   1.0000      -0.181888        -4.9494
  14   0.0000      -0.133812        -3.6412
  15   0.0000      -0.005213        -0.1419
  16   0.0000      -0.005213        -0.1419
  17   0.0000      -0.005213        -0.1419
  18   0.0000       0.021748         0.5918

MULLIKEN ATOMIC CHARGES AND SPIN POPULATIONS
--------------------------------------------
   0 Cu:   -0.000000    1.000000
Sum of atomic charges         :   -0.0000000

LOEWDIN ATOMIC CHARGES AND SPIN POPULATIONS
-------------------------------------------
   0 Cu:    0.000000    1.000000

Dispersion correction            0.000000000
FINAL SINGLE POINT ENERGY     -1640.562593161962

DIPOLE MOMENT
-------------
                                X             Y             Z
Electronic contribution:     -0.00000       0.00000      -0.00000
Nuclear contribution   :      0.00000       0.00000       0.00000
                        -----------------------------------------
Total Dipole Moment    :     -0.00000       0.00000      -0.00000
                        -----------------------------------------
Magnitude (a.u.)       :      0.00000
Magnitude (Debye)      :      0.00000

Rotational constants in cm-1:     0.000000     0.000000     0.000000
Rotational constants in MHz :     0.000000     0.000000     0.000000

                             ****ORCA TERMINATED NORMALLY****
TOTAL RUN TIME: 0 days 0 hours 0 minutes 5 seconds 824 msec
