                         Program Version 4.2.0 -  RELEASE  -
|  1> #
|  2> # 73_Cl tpss/aug-cc-pvtz
|  3> #
|  4> ! tpss d3bj aug-cc-pvtz def2/j grid4 nofinalgrid
|  5>
|  6> *xyz 0 2
|  7> Cl 0.0 0.0 0.0
|  8> *
|  9>
| 10> %pal
| 11> nprocs 24
| 12> end
| 13>
| 14>
| 15>                          ****END OF INPUT****

CARTESIAN COORDINATES (ANGSTROEM)
---------------------------------
  Cl     0.000000    0.000000    0.000000

 Total Charge           Charge          ....    0
 Multiplicity           Mult            ....    2
 Number of Electrons    NEL             ....   17
 Basis Dimension        Dim             ....   50

ORBITAL ENERGIES
----------------
                 SPIN UP ORBITALS
  NO   OCC          E(Eh)            E(eV)
   0   1.0000    -101.076841     -2750.4407
   1   1.0000      -9.298087      -253.0138
   2   1.0000      -7.088490      -192.8876
   3   1.0000      -7.066048      -192.2770
   4   1.0000      -7.066048      -192.2770
   5   1.0000      -0.789060       -21.4714
   6   1.0000      -0.375184       -10.2093
   7   1.0000      -0.317852        -8.6492
   8   1.0000      -0.317852        -8.6492
   9   0.0000       0.030453         0.8287
  10   0.0000       0.051973         1.4143
  11   0.0000       0.058815         1.6004
  12   0.0000       0.058816         1.6005
  13   0.0000       0.178057         4.8452

                 SPIN DOWN ORBITALS
  NO   OCC          E(Eh)            E(eV)
   0   1.0000    -101.070835     -2750.2772
   1   1.0000      -9.292794      -252.8698
   2   1.0000      -7.071377      -192.4220
   3   1.0000      -7.062858      -192.1901
   4   1.0000      -7.062858      -192.1901
   5   1.0000      -0.741289       -20.1715
   6   1.0000      -0.303946        -8.2708
   7   1.0000      -0.303946        -8.2708
   8   0.0000      -0.277595        -7.5537
   9   0.0000       0.038331         1.0430
  10   0.0000       0.060424         1.6442
  11   0.0000       0.060427         1.6443
  12   0.0000       0.065018         1.7692

MULLIKEN ATOMIC CHARGES AND SPIN POPULATIONS
--------------------------------------------
   0 Cl:   -0.000000    1.000000
Sum of atomic charges         :   -0.0000000

LOEWDIN ATOMIC CHARGES AND SPIN POPULATIONS
-------------------------------------------
   0 Cl:   -0.000000    1.000000

Dispersion correction            0.000000000
FINAL SINGLE POINT ENERGY      -460.177668950773

DIPOLE MOMENT
-------------
                                X             Y             Z
Electronic contribution:     -0.00000       0.00000       0.00000
Nuclear contribution   :      0.00000       0.00000       0.00000
                        -----------------------------------------
Total Dipole Moment    :     -0.00000       0.00000       0.00000
                        -----------------------------------------
Magnitude (a.u.)       :      0.00000
Magnitude (Debye)      :      0.00000

Rotational constants in cm-1:     0.000000     0.000000     0.000000
Rotational constants in MHz :     0.000000     0.000000     0.000000

                             ****ORCA TERMINATED NORMALLY****
TOTAL RUN TIME: 0 days 0 hours 0 minutes 2 seconds 618 msec
