                         Program Version 4.2.0 -  RELEASE  -
|  1> #
|  2> # 76_S tpss/aug-cc-pvtz
|  3> #
|  4> ! tpss d3bj aug-cc-pvtz def2/j grid4 nofinalgrid
|  5>
|  6> *xyz 0 3
|  7> S 0.0 0.0 0.0
|  8> *
|  9>
| 10> %pal
| 11> nprocs 24
| 12> end
| 13>
| 14>
| 15>                          ****END OF INPUT****

CARTESIAN COORDINATES (ANGSTROEM)
---------------------------------
  S      0.000000    0.000000    0.000000

 Total Charge           Charge          ....    0
 Multiplicity           Mult            ....    3
 Number of Electrons    NEL             ....   16
 Basis Dimension        Dim             ....   50

ORBITAL ENERGIES
----------------
                 SPIN UP ORBITALS
  NO   OCC          E(Eh)            E(eV)
   0   1.0000     -88.446431     -2406.7498
   1   1.0000      -7.799288      -212.2294
   2   1.0000      -5.785394      -157.4286
   3   1.0000      -5.785394      -157.4286
   4   1.0000      -5.766024      -156.9015
   5   1.0000      -0.673748       -18.3336
   6   1.0000      -0.304964        -8.2985
   7   1.0000      -0.304964        -8.2985
   8   1.0000      -0.254179        -6.9166
   9   0.0000       0.017456         0.4750
  10   0.0000       0.041287         1.1235
  11   0.0000       0.041288         1.1235
  12   0.0000       0.047894         1.3033
  13   0.0000       0.125275         3.4089

                 SPIN DOWN ORBITALS
  NO   OCC          E(Eh)            E(eV)
   0   1.0000     -88.436724     -2406.4856
   1   1.0000      -7.789978      -211.9761
   2   1.0000      -5.768252      -156.9621
   3   1.0000      -5.768252      -156.9621
   4   1.0000      -5.760473      -156.7504
   5   1.0000      -0.586048       -15.9472
   6   1.0000      -0.232681        -6.3316
   7   0.0000      -0.200796        -5.4639
   8   0.0000      -0.200796        -5.4639
   9   0.0000       0.034394         0.9359
  10   0.0000       0.051379         1.3981
  11   0.0000       0.060092         1.6352

MULLIKEN ATOMIC CHARGES AND SPIN POPULATIONS
--------------------------------------------
   0 S :   -0.000000    2.000000
Sum of atomic charges         :   -0.0000000

LOEWDIN ATOMIC CHARGES AND SPIN POPULATIONS
-------------------------------------------
   0 S :    0.000000    2.000000

Dispersion correction            0.000000000
FINAL SINGLE POINT ENERGY      -398.142475738797

DIPOLE MOMENT
-------------
                                X             Y             Z
Electronic contribution:     -0.00000       0.00000      -0.00000
Nuclear contribution   :      0.00000       0.00000       0.00000
                        -----------------------------------------
Total Dipole Moment    :     -0.00000       0.00000      -0.00000
                        -----------------------------------------
Magnitude (a.u.)       :      0.00000
Magnitude (Debye)      :      0.00000

Rotational constants in cm-1:     0.000000     0.000000     0.000000
Rotational constants in MHz :     0.000000     0.000000     0.000000

                             ****ORCA TERMINATED NORMALLY****
TOTAL RUN TIME: 0 days 0 hours 0 minutes 2 seconds 903 msec
