                         Program Version 4.2.0 -  RELEASE  -
|  1> #
|  2> # 01_ScH tpss/aug-cc-pvtz
|  3> #
|  4> ! tpss d3bj aug-cc-pvtz def2/j opt xyzfile
|  5>
|  6> *xyz 0 1
|  7> Sc 0.0 0.0 0.0
|  8> H 0.0 0.0 2.0
|  9> *
| 10>
| 11> %pal
| 12> nprocs 24
| 13> end
| 14>
| 15>
| 16>                          ****END OF INPUT****
 Total Charge           Charge          ....    0
 Multiplicity           Mult            ....    1
 Number of Electrons    NEL             ....   22
Dispersion correction           -0.000811994
FINAL SINGLE POINT ENERGY      -761.229611316163
Dispersion correction            ... done
Dispersion correction           -0.000675156
FINAL SINGLE POINT ENERGY      -761.234276145990
Dispersion correction            ... done
Dispersion correction           -0.000593831
FINAL SINGLE POINT ENERGY      -761.236575207033
Dispersion correction            ... done
Dispersion correction           -0.000604404
FINAL SINGLE POINT ENERGY      -761.236692123571
Dispersion correction            ... done
Dispersion correction           -0.000602068
FINAL SINGLE POINT ENERGY      -761.236716632324
Dispersion correction            ... done
                    ***********************HURRAY********************

CARTESIAN COORDINATES (ANGSTROEM)
---------------------------------
  Sc     0.000000    0.000000    0.115469
  H      0.000000    0.000000    1.884531

 Multiplicity           Mult            ....    1
 Number of Electrons    NEL             ....   22
 Basis Dimension        Dim             ....  116

ORBITAL ENERGIES
----------------

  NO   OCC          E(Eh)            E(eV)
   0   2.0000    -161.068137     -4382.8868
   1   2.0000     -17.362275      -472.4515
   2   2.0000     -14.307564      -389.3286
   3   2.0000     -14.307564      -389.3286
   4   2.0000     -14.292251      -388.9119
   5   2.0000      -2.040840       -55.5341
   6   2.0000      -1.265855       -34.4457
   7   2.0000      -1.265855       -34.4457
   8   2.0000      -1.241133       -33.7729
   9   2.0000      -0.255576        -6.9546
  10   2.0000      -0.145224        -3.9517
  11   0.0000      -0.134672        -3.6646
  12   0.0000      -0.134593        -3.6625
  13   0.0000      -0.113328        -3.0838
  14   0.0000      -0.113328        -3.0838
  15   0.0000      -0.084974        -2.3123

MULLIKEN ATOMIC CHARGES
-----------------------
   0 Sc:    0.246955
   1 H :   -0.246955
Sum of atomic charges:    0.0000000

LOEWDIN ATOMIC CHARGES
----------------------
   0 Sc:    0.752237
   1 H :   -0.752237

  Mayer bond orders larger than 0.100000
B(  0-Sc,  1-H ) :   1.0070

Dispersion correction           -0.000601918
FINAL SINGLE POINT ENERGY      -761.236717563406

DIPOLE MOMENT
-------------
                                X             Y             Z
Electronic contribution:      0.00000      -0.00000      -2.47100
Nuclear contribution   :      0.00000       0.00000       1.73028
                        -----------------------------------------
Total Dipole Moment    :      0.00000      -0.00000      -0.74072
                        -----------------------------------------
Magnitude (a.u.)       :      0.74072
Magnitude (Debye)      :      1.88276

Rotational constants in cm-1:     0.000000     5.463605     5.463605
Rotational constants in MHz :     0.000000 163794.743331 163794.743331

                             ****ORCA TERMINATED NORMALLY****
TOTAL RUN TIME: 0 days 0 hours 0 minutes 58 seconds 174 msec
