                         Program Version 4.2.0 -  RELEASE  -
|  1> #
|  2> # 02_ScF tpss/aug-cc-pvtz
|  3> #
|  4> ! tpss d3bj aug-cc-pvtz def2/j opt xyzfile
|  5>
|  6> *xyz 0 1
|  7> Sc 0.0 0.0 0.0
|  8> F 0.0 0.0 2.0
|  9> *
| 10>
| 11> %pal
| 12> nprocs 24
| 13> end
| 14>
| 15>
| 16>                          ****END OF INPUT****
 Total Charge           Charge          ....    0
 Multiplicity           Mult            ....    1
 Number of Electrons    NEL             ....   30
Dispersion correction           -0.000618485
FINAL SINGLE POINT ENERGY      -860.628233566238   (Wavefunction not fully converged!)
Dispersion correction            ... done
Dispersion correction           -0.000616233
FINAL SINGLE POINT ENERGY      -860.633985230282
Dispersion correction            ... done
Dispersion correction           -0.000614842
FINAL SINGLE POINT ENERGY      -860.643362141564
Dispersion correction            ... done
Dispersion correction           -0.000614829
FINAL SINGLE POINT ENERGY      -860.643366568393
Dispersion correction            ... done
Dispersion correction           -0.000614832
FINAL SINGLE POINT ENERGY      -860.643378552126
Dispersion correction            ... done
                    ***********************HURRAY********************

CARTESIAN COORDINATES (ANGSTROEM)
---------------------------------
  Sc     0.000000    0.000000    0.103571
  F      0.000000    0.000000    1.896429

 Multiplicity           Mult            ....    1
 Number of Electrons    NEL             ....   30
 Basis Dimension        Dim             ....  139

ORBITAL ENERGIES
----------------

  NO   OCC          E(Eh)            E(eV)
   0   2.0000    -161.092987     -4383.5630
   1   2.0000     -24.407101      -664.1510
   2   2.0000     -17.396424      -473.3808
   3   2.0000     -14.340300      -390.2194
   4   2.0000     -14.340300      -390.2194
   5   2.0000     -14.328175      -389.8895
   6   2.0000      -2.071969       -56.3811
   7   2.0000      -1.297836       -35.3159
   8   2.0000      -1.291870       -35.1536
   9   2.0000      -1.291870       -35.1536
  10   2.0000      -1.058228       -28.7958
  11   2.0000      -0.391986       -10.6665
  12   2.0000      -0.377305       -10.2670
  13   2.0000      -0.377305       -10.2670
  14   2.0000      -0.156543        -4.2598
  15   0.0000      -0.152968        -4.1625
  16   0.0000      -0.152936        -4.1616
  17   0.0000      -0.120872        -3.2891
  18   0.0000      -0.120872        -3.2891
  19   0.0000      -0.091104        -2.4791

MULLIKEN ATOMIC CHARGES
-----------------------
   0 Sc:    0.636881
   1 F :   -0.636881
Sum of atomic charges:   -0.0000000

LOEWDIN ATOMIC CHARGES
----------------------
   0 Sc:    0.359551
   1 F :   -0.359551

  Mayer bond orders larger than 0.100000
B(  0-Sc,  1-F ) :   0.8781

Dispersion correction           -0.000614832
FINAL SINGLE POINT ENERGY      -860.643378657643

DIPOLE MOMENT
-------------
                                X             Y             Z
Electronic contribution:      0.00000       0.00000      -0.98844
Nuclear contribution   :      0.00000       0.00000       0.30099
                        -----------------------------------------
Total Dipole Moment    :      0.00000       0.00000      -0.68745
                        -----------------------------------------
Magnitude (a.u.)       :      0.68745
Magnitude (Debye)      :      1.74735

Rotational constants in cm-1:     0.000000     0.392705     0.392705
Rotational constants in MHz :     0.000000 11772.989606 11772.989606

                             ****ORCA TERMINATED NORMALLY****
TOTAL RUN TIME: 0 days 0 hours 1 minutes 18 seconds 309 msec
