                         Program Version 4.2.0 -  RELEASE  -
|  1> #
|  2> # 03_ScCl tpss/aug-cc-pvtz
|  3> #
|  4> ! tpss d3bj aug-cc-pvtz def2/j opt xyzfile
|  5>
|  6> *xyz 0 1
|  7> Sc 0.0 0.0 0.0
|  8> Cl 0.0 0.0 2.0
|  9> *
| 10>
| 11> %pal
| 12> nprocs 24
| 13> end
| 14>
| 15>
| 16>                          ****END OF INPUT****
 Total Charge           Charge          ....    0
 Multiplicity           Mult            ....    1
 Number of Electrons    NEL             ....   38
Dispersion correction           -0.001743080
FINAL SINGLE POINT ENERGY     -1220.972671472600
Dispersion correction            ... done
Dispersion correction           -0.001742513
FINAL SINGLE POINT ENERGY     -1220.979185338711
Dispersion correction            ... done
Dispersion correction           -0.001741422
FINAL SINGLE POINT ENERGY     -1220.990515282133
Dispersion correction            ... done
FINAL SINGLE POINT ENERGY     -1220.991894536227
Dispersion correction            ... done
Dispersion correction           -0.001742393
FINAL SINGLE POINT ENERGY     -1220.992028965198
Dispersion correction            ... done
Dispersion correction           -0.001742500
FINAL SINGLE POINT ENERGY     -1220.992024897697
Dispersion correction            ... done
                    ***********************HURRAY********************

CARTESIAN COORDINATES (ANGSTROEM)
---------------------------------
  Sc     0.000000    0.000000   -0.117869
  Cl     0.000000    0.000000    2.117869

 Multiplicity           Mult            ....    1
 Number of Electrons    NEL             ....   38
 Basis Dimension        Dim             ....  143

ORBITAL ENERGIES
----------------

  NO   OCC          E(Eh)            E(eV)
   0   2.0000    -161.082839     -4383.2869
   1   2.0000    -101.009276     -2748.6021
   2   2.0000     -17.378529      -472.8938
   3   2.0000     -14.323568      -389.7641
   4   2.0000     -14.323568      -389.7641
   5   2.0000     -14.308924      -389.3656
   6   2.0000      -9.237304      -251.3598
   7   2.0000      -7.012758      -190.8269
   8   2.0000      -7.011448      -190.7912
   9   2.0000      -7.011448      -190.7912
  10   2.0000      -2.056059       -55.9482
  11   2.0000      -1.278698       -34.7951
  12   2.0000      -1.278698       -34.7951
  13   2.0000      -1.263173       -34.3727
  14   2.0000      -0.737521       -20.0690
  15   2.0000      -0.325562        -8.8590
  16   2.0000      -0.299236        -8.1426
  17   2.0000      -0.299236        -8.1426
  18   2.0000      -0.153697        -4.1823
  19   0.0000      -0.145292        -3.9536
  20   0.0000      -0.145038        -3.9467
  21   0.0000      -0.120780        -3.2866
  22   0.0000      -0.120780        -3.2866
  23   0.0000      -0.101671        -2.7666

MULLIKEN ATOMIC CHARGES
-----------------------
   0 Sc:    0.340735
   1 Cl:   -0.340735
Sum of atomic charges:    0.0000000

LOEWDIN ATOMIC CHARGES
----------------------
   0 Sc:   -0.162991
   1 Cl:    0.162991

  Mayer bond orders larger than 0.100000
B(  0-Sc,  1-Cl) :   1.4087

Dispersion correction           -0.001742506
FINAL SINGLE POINT ENERGY     -1220.992024409835

DIPOLE MOMENT
-------------
                                X             Y             Z
Electronic contribution:      0.00000       0.00000      -2.09869
Nuclear contribution   :      0.00000       0.00000       1.04067
                        -----------------------------------------
Total Dipole Moment    :      0.00000       0.00000      -1.05802
                        -----------------------------------------
Magnitude (a.u.)       :      1.05802
Magnitude (Debye)      :      2.68927

Rotational constants in cm-1:     0.000000     0.170138     0.170138
Rotational constants in MHz :     0.000000  5100.617263  5100.617263

                             ****ORCA TERMINATED NORMALLY****
TOTAL RUN TIME: 0 days 0 hours 1 minutes 10 seconds 746 msec
