                         Program Version 4.2.0 -  RELEASE  -
|  1> #
|  2> # 04_ScBr tpss/aug-cc-pvtz
|  3> #
|  4> ! tpss d3bj aug-cc-pvtz def2/j opt xyzfile
|  5>
|  6> *xyz 0 1
|  7> Sc 0.0 0.0 0.0
|  8> Br 0.0 0.0 2.0
|  9> *
| 10>
| 11> %pal
| 12> nprocs 24
| 13> end
| 14>
| 15>
| 16>                          ****END OF INPUT****
 Total Charge           Charge          ....    0
 Multiplicity           Mult            ....    1
 Number of Electrons    NEL             ....   56
Dispersion correction           -0.001946767
FINAL SINGLE POINT ENERGY     -3334.803723262074
Dispersion correction            ... done
Dispersion correction           -0.001946008
FINAL SINGLE POINT ENERGY     -3334.819459775331
Dispersion correction            ... done
Dispersion correction           -0.001943323
FINAL SINGLE POINT ENERGY     -3334.850645486787
Dispersion correction            ... done
FINAL SINGLE POINT ENERGY     -3334.857685436611
FINAL SINGLE POINT ENERGY     -3334.859351490401
Dispersion correction            ... done
Dispersion correction           -0.001943726
FINAL SINGLE POINT ENERGY     -3334.859470045251
Dispersion correction            ... done
Dispersion correction           -0.001943873
FINAL SINGLE POINT ENERGY     -3334.859467445994
Dispersion correction            ... done
                    ***********************HURRAY********************

CARTESIAN COORDINATES (ANGSTROEM)
---------------------------------
  Sc     0.000000    0.000000   -0.193421
  Br     0.000000    0.000000    2.193421

 Multiplicity           Mult            ....    1
 Number of Electrons    NEL             ....   56
 Basis Dimension        Dim             ....  152

ORBITAL ENERGIES
----------------

  NO   OCC          E(Eh)            E(eV)
   0   2.0000    -481.731067    -13108.5688
   1   2.0000    -161.080534     -4383.2242
   2   2.0000     -61.944015     -1685.5823
   3   2.0000     -55.777147     -1517.7733
   4   2.0000     -55.776437     -1517.7540
   5   2.0000     -55.776437     -1517.7540
   6   2.0000     -17.374230      -472.7768
   7   2.0000     -14.319484      -389.6530
   8   2.0000     -14.319484      -389.6530
   9   2.0000     -14.304390      -389.2422
  10   2.0000      -8.470620      -230.4973
  11   2.0000      -6.307816      -171.6444
  12   2.0000      -6.307095      -171.6248
  13   2.0000      -6.307095      -171.6248
  14   2.0000      -2.477593       -67.4187
  15   2.0000      -2.476868       -67.3990
  16   2.0000      -2.476868       -67.3990
  17   2.0000      -2.476381       -67.3857
  18   2.0000      -2.476091       -67.3779
  19   2.0000      -2.052418       -55.8491
  20   2.0000      -1.275549       -34.7095
  21   2.0000      -1.275549       -34.7095
  22   2.0000      -1.258363       -34.2418
  23   2.0000      -0.697755       -18.9869
  24   2.0000      -0.305522        -8.3137
  25   2.0000      -0.277264        -7.5447
  26   2.0000      -0.277264        -7.5447
  27   2.0000      -0.152235        -4.1425
  28   0.0000      -0.143319        -3.8999
  29   0.0000      -0.143130        -3.8948
  30   0.0000      -0.120075        -3.2674
  31   0.0000      -0.120075        -3.2674
  32   0.0000      -0.103118        -2.8060

MULLIKEN ATOMIC CHARGES
-----------------------
   0 Sc:    0.309019
   1 Br:   -0.309019
Sum of atomic charges:   -0.0000000

LOEWDIN ATOMIC CHARGES
----------------------
   0 Sc:   -0.300020
   1 Br:    0.300020

  Mayer bond orders larger than 0.100000
B(  0-Sc,  1-Br) :   1.6768

Dispersion correction           -0.001943881
FINAL SINGLE POINT ENERGY     -3334.859466745259

DIPOLE MOMENT
-------------
                                X             Y             Z
Electronic contribution:      0.00000       0.00000       2.68021
Nuclear contribution   :      0.00000       0.00000      -3.76776
                        -----------------------------------------
Total Dipole Moment    :      0.00000       0.00000      -1.08755
                        -----------------------------------------
Magnitude (a.u.)       :      1.08755
Magnitude (Debye)      :      2.76433

Rotational constants in cm-1:     0.000000     0.102849     0.102849
Rotational constants in MHz :     0.000000  3083.332036  3083.332036

                             ****ORCA TERMINATED NORMALLY****
TOTAL RUN TIME: 0 days 0 hours 1 minutes 35 seconds 82 msec
