                         Program Version 4.2.0 -  RELEASE  -
|  1> #
|  2> # 05_ScO tpss/aug-cc-pvtz
|  3> #
|  4> ! tpss d3bj aug-cc-pvtz def2/j opt xyzfile
|  5>
|  6> *xyz 0 2
|  7> Sc 0.0 0.0 0.0
|  8> O 0.0 0.0 2.0
|  9> *
| 10>
| 11> %pal
| 12> nprocs 24
| 13> end
| 14>
| 15>
| 16>                          ****END OF INPUT****
 Total Charge           Charge          ....    0
 Multiplicity           Mult            ....    2
 Number of Electrons    NEL             ....   29
Dispersion correction           -0.000864185
FINAL SINGLE POINT ENERGY      -835.970778662561
Dispersion correction            ... done
Dispersion correction           -0.000857992
FINAL SINGLE POINT ENERGY      -835.993600028329
Dispersion correction            ... done
Dispersion correction           -0.000856649
FINAL SINGLE POINT ENERGY      -836.018320500092
Dispersion correction            ... done
FINAL SINGLE POINT ENERGY      -836.019828685402
FINAL SINGLE POINT ENERGY      -836.021538784630
Dispersion correction            ... done
Dispersion correction           -0.000856892
FINAL SINGLE POINT ENERGY      -836.021589810387
Dispersion correction            ... done
Dispersion correction           -0.000856896
FINAL SINGLE POINT ENERGY      -836.021592062642
Dispersion correction            ... done
                    ***********************HURRAY********************

CARTESIAN COORDINATES (ANGSTROEM)
---------------------------------
  Sc     0.000000    0.000000    0.164930
  O      0.000000    0.000000    1.835070

 Multiplicity           Mult            ....    2
 Number of Electrons    NEL             ....   29
 Basis Dimension        Dim             ....  139

ORBITAL ENERGIES
----------------
                 SPIN UP ORBITALS
  NO   OCC          E(Eh)            E(eV)
   0   1.0000    -161.016479     -4381.4811
   1   1.0000     -18.833847      -512.4950
   2   1.0000     -17.301052      -470.7856
   3   1.0000     -14.244781      -387.6202
   4   1.0000     -14.244781      -387.6202
   5   1.0000     -14.235188      -387.3591
   6   1.0000      -1.992780       -54.2263
   7   1.0000      -1.223024       -33.2802
   8   1.0000      -1.218622       -33.1604
   9   1.0000      -1.218622       -33.1604
  10   1.0000      -0.760815       -20.7028
  11   1.0000      -0.255050        -6.9403
  12   1.0000      -0.255050        -6.9403
  13   1.0000      -0.247077        -6.7233
  14   1.0000      -0.147396        -4.0109
  15   0.0000      -0.103448        -2.8150
  16   0.0000      -0.103423        -2.8143
  17   0.0000      -0.078227        -2.1287
  18   0.0000      -0.078227        -2.1287
  19   0.0000      -0.051013        -1.3881

                 SPIN DOWN ORBITALS
  NO   OCC          E(Eh)            E(eV)
   0   1.0000    -161.015815     -4381.4631
   1   1.0000     -18.834884      -512.5232
   2   1.0000     -17.299683      -470.7483
   3   1.0000     -14.243692      -387.5906
   4   1.0000     -14.243692      -387.5906
   5   1.0000     -14.233629      -387.3167
   6   1.0000      -1.987825       -54.0915
   7   1.0000      -1.215360       -33.0716
   8   1.0000      -1.214188       -33.0397
   9   1.0000      -1.214188       -33.0397
  10   1.0000      -0.762109       -20.7380
  11   1.0000      -0.255002        -6.9390
  12   1.0000      -0.255002        -6.9390
  13   1.0000      -0.246534        -6.7085
  14   0.0000      -0.115145        -3.1332
  15   0.0000      -0.089959        -2.4479
  16   0.0000      -0.089927        -2.4470
  17   0.0000      -0.054837        -1.4922
  18   0.0000      -0.054837        -1.4922

MULLIKEN ATOMIC CHARGES AND SPIN POPULATIONS
--------------------------------------------
   0 Sc:    0.881107    0.997960
   1 O :   -0.881107    0.002040
Sum of atomic charges         :   -0.0000000

LOEWDIN ATOMIC CHARGES AND SPIN POPULATIONS
-------------------------------------------
   0 Sc:    0.683492    0.943940
   1 O :   -0.683492    0.056060

  Mayer bond orders larger than 0.100000
B(  0-Sc,  1-O ) :   1.9741

Dispersion correction           -0.000856895
FINAL SINGLE POINT ENERGY      -836.021591021233

DIPOLE MOMENT
-------------
                                X             Y             Z
Electronic contribution:      0.00000       0.00000      -2.58875
Nuclear contribution   :      0.00000       0.00000       1.22710
                        -----------------------------------------
Total Dipole Moment    :      0.00000       0.00000      -1.36165
                        -----------------------------------------
Magnitude (a.u.)       :      1.36165
Magnitude (Debye)      :      3.46103

Rotational constants in cm-1:     0.000000     0.512165     0.512165
Rotational constants in MHz :     0.000000 15354.316375 15354.316375

                             ****ORCA TERMINATED NORMALLY****
TOTAL RUN TIME: 0 days 0 hours 1 minutes 23 seconds 25 msec
