                         Program Version 4.2.0 -  RELEASE  -
|  1> #
|  2> # 06_ScS tpss/aug-cc-pvtz
|  3> #
|  4> ! tpss d3bj aug-cc-pvtz def2/j opt xyzfile
|  5>
|  6> *xyz 0 2
|  7> Sc 0.0 0.0 0.0
|  8> S 0.0 0.0 2.0
|  9> *
| 10>
| 11> %pal
| 12> nprocs 24
| 13> end
| 14>
| 15>
| 16>                          ****END OF INPUT****
 Total Charge           Charge          ....    0
 Multiplicity           Mult            ....    2
 Number of Electrons    NEL             ....   37
Dispersion correction           -0.002001219
FINAL SINGLE POINT ENERGY     -1158.977016161698
Dispersion correction            ... done
Dispersion correction           -0.002000847
FINAL SINGLE POINT ENERGY     -1158.980054440418
Dispersion correction            ... done
Dispersion correction           -0.001999604
FINAL SINGLE POINT ENERGY     -1158.986171997877
Dispersion correction            ... done
Dispersion correction           -0.001999410
FINAL SINGLE POINT ENERGY     -1158.986467500219
Dispersion correction            ... done
Dispersion correction           -0.001999375
FINAL SINGLE POINT ENERGY     -1158.986471597927
Dispersion correction            ... done
                    ***********************HURRAY********************

CARTESIAN COORDINATES (ANGSTROEM)
---------------------------------
  Sc     0.000000    0.000000   -0.070796
  S      0.000000    0.000000    2.070796

 Multiplicity           Mult            ....    2
 Number of Electrons    NEL             ....   37
 Basis Dimension        Dim             ....  143

ORBITAL ENERGIES
----------------
                 SPIN UP ORBITALS
  NO   OCC          E(Eh)            E(eV)
   0   1.0000    -161.046508     -4382.2983
   1   1.0000     -88.326191     -2403.4778
   2   1.0000     -17.332364      -471.6376
   3   1.0000     -14.275962      -388.4687
   4   1.0000     -14.275962      -388.4687
   5   1.0000     -14.266413      -388.2088
   6   1.0000      -7.682941      -209.0634
   7   1.0000      -5.660956      -154.0424
   8   1.0000      -5.660956      -154.0424
   9   1.0000      -5.659496      -154.0027
  10   1.0000      -2.020004       -54.9671
  11   1.0000      -1.244872       -33.8747
  12   1.0000      -1.244872       -33.8747
  13   1.0000      -1.233009       -33.5519
  14   1.0000      -0.562655       -15.3106
  15   1.0000      -0.228124        -6.2076
  16   1.0000      -0.214363        -5.8331
  17   1.0000      -0.214363        -5.8331
  18   1.0000      -0.156131        -4.2485
  19   0.0000      -0.126319        -3.4373
  20   0.0000      -0.126288        -3.4365
  21   0.0000      -0.101303        -2.7566
  22   0.0000      -0.101303        -2.7566
  23   0.0000      -0.089306        -2.4301

                 SPIN DOWN ORBITALS
  NO   OCC          E(Eh)            E(eV)
   0   1.0000    -161.045953     -4382.2832
   1   1.0000     -88.326427     -2403.4843
   2   1.0000     -17.329850      -471.5692
   3   1.0000     -14.274259      -388.4223
   4   1.0000     -14.274259      -388.4223
   5   1.0000     -14.263390      -388.1266
   6   1.0000      -7.683138      -209.0688
   7   1.0000      -5.661291      -154.0516
   8   1.0000      -5.661291      -154.0516
   9   1.0000      -5.659769      -154.0102
  10   1.0000      -2.010855       -54.7181
  11   1.0000      -1.238061       -33.6894
  12   1.0000      -1.238061       -33.6894
  13   1.0000      -1.216394       -33.0998
  14   1.0000      -0.563809       -15.3420
  15   1.0000      -0.225248        -6.1293
  16   1.0000      -0.214154        -5.8274
  17   1.0000      -0.214154        -5.8274
  18   0.0000      -0.127851        -3.4790
  19   0.0000      -0.110327        -3.0021
  20   0.0000      -0.110247        -3.0000
  21   0.0000      -0.089297        -2.4299
  22   0.0000      -0.089297        -2.4299

MULLIKEN ATOMIC CHARGES AND SPIN POPULATIONS
--------------------------------------------
   0 Sc:    0.304700    1.020557
   1 S :   -0.304700   -0.020557
Sum of atomic charges         :   -0.0000000

LOEWDIN ATOMIC CHARGES AND SPIN POPULATIONS
-------------------------------------------
   0 Sc:    0.083350    0.940414
   1 S :   -0.083350    0.059586

  Mayer bond orders larger than 0.100000
B(  0-Sc,  1-S ) :   2.5735

Dispersion correction           -0.001999373
FINAL SINGLE POINT ENERGY     -1158.986471066694

DIPOLE MOMENT
-------------
                                X             Y             Z
Electronic contribution:      0.00000      -0.00000      -4.43406
Nuclear contribution   :      0.00000       0.00000       2.42233
                        -----------------------------------------
Total Dipole Moment    :      0.00000      -0.00000      -2.01173
                        -----------------------------------------
Magnitude (a.u.)       :      2.01173
Magnitude (Debye)      :      5.11342

Rotational constants in cm-1:     0.000000     0.196398     0.196398
Rotational constants in MHz :     0.000000  5887.862686  5887.862686

                             ****ORCA TERMINATED NORMALLY****
TOTAL RUN TIME: 0 days 0 hours 1 minutes 2 seconds 421 msec
