                         Program Version 4.2.0 -  RELEASE  -
|  1> #
|  2> # 07_TiH tpss/aug-cc-pvtz
|  3> #
|  4> ! tpss d3bj aug-cc-pvtz def2/j opt xyzfile
|  5>
|  6> *xyz 0 4
|  7> Ti 0.0 0.0 0.0
|  8> H 0.0 0.0 2.0
|  9> *
| 10>
| 11> %pal
| 12> nprocs 24
| 13> end
| 14>
| 15>
| 16>                          ****END OF INPUT****
 Total Charge           Charge          ....    0
 Multiplicity           Mult            ....    4
 Number of Electrons    NEL             ....   23
Dispersion correction           -0.001011311
FINAL SINGLE POINT ENERGY      -849.988595311453
Dispersion correction            ... done
Dispersion correction           -0.000858736
FINAL SINGLE POINT ENERGY      -849.992897668092
Dispersion correction            ... done
Dispersion correction           -0.000633996
FINAL SINGLE POINT ENERGY      -849.995135363597
Dispersion correction            ... done
Dispersion correction           -0.000667186
FINAL SINGLE POINT ENERGY      -849.995239547722
Dispersion correction            ... done
Dispersion correction           -0.000660196
FINAL SINGLE POINT ENERGY      -849.995249107922
Dispersion correction            ... done
                    ***********************HURRAY********************

CARTESIAN COORDINATES (ANGSTROEM)
---------------------------------
  Ti     0.000000    0.000000    0.116621
  H      0.000000    0.000000    1.883379

 Multiplicity           Mult            ....    4
 Number of Electrons    NEL             ....   23
 Basis Dimension        Dim             ....  116

ORBITAL ENERGIES
----------------
                 SPIN UP ORBITALS
  NO   OCC          E(Eh)            E(eV)
   0   1.0000    -178.118863     -4846.8607
   1   1.0000     -19.518461      -531.1243
   2   1.0000     -16.251978      -442.2388
   3   1.0000     -16.246546      -442.0910
   4   1.0000     -16.244729      -442.0416
   5   1.0000      -2.246727       -61.1366
   6   1.0000      -1.394039       -37.9337
   7   1.0000      -1.383772       -37.6544
   8   1.0000      -1.383624       -37.6503
   9   1.0000      -0.237983        -6.4759
  10   1.0000      -0.159292        -4.3346
  11   1.0000      -0.140210        -3.8153
  12   1.0000      -0.138024        -3.7558
  13   0.0000      -0.106724        -2.9041
  14   0.0000      -0.101162        -2.7528
  15   0.0000      -0.080088        -2.1793
  16   0.0000      -0.051875        -1.4116
  17   0.0000      -0.051388        -1.3983

                 SPIN DOWN ORBITALS
  NO   OCC          E(Eh)            E(eV)
   0   1.0000    -178.118342     -4846.8465
   1   1.0000     -19.497597      -530.5566
   2   1.0000     -16.236954      -441.8300
   3   1.0000     -16.230826      -441.6632
   4   1.0000     -16.225112      -441.5078
   5   1.0000      -2.179840       -59.3165
   6   1.0000      -1.334769       -36.3209
   7   1.0000      -1.316228       -35.8164
   8   1.0000      -1.304172       -35.4883
   9   1.0000      -0.228011        -6.2045
  10   0.0000      -0.101996        -2.7755
  11   0.0000      -0.074051        -2.0150
  12   0.0000      -0.069344        -1.8870
  13   0.0000      -0.052044        -1.4162
  14   0.0000      -0.047046        -1.2802

MULLIKEN ATOMIC CHARGES AND SPIN POPULATIONS
--------------------------------------------
   0 Ti:    0.194762    3.066520
   1 H :   -0.194762   -0.066520
Sum of atomic charges         :    0.0000000

LOEWDIN ATOMIC CHARGES AND SPIN POPULATIONS
-------------------------------------------
   0 Ti:    0.678594    2.857229
   1 H :   -0.678594    0.142771

  Mayer bond orders larger than 0.100000
B(  0-Ti,  1-H ) :   0.9237

Dispersion correction           -0.000659805
FINAL SINGLE POINT ENERGY      -849.995249381320

DIPOLE MOMENT
-------------
                                X             Y             Z
Electronic contribution:     -0.00003      -0.00000      -2.69543
Nuclear contribution   :      0.00000       0.00000       1.75604
                        -----------------------------------------
Total Dipole Moment    :     -0.00003      -0.00000      -0.93939
                        -----------------------------------------
Magnitude (a.u.)       :      0.93939
Magnitude (Debye)      :      2.38773

Rotational constants in cm-1:     0.000000     5.470494     5.470494
Rotational constants in MHz :     0.000000 164001.275229 164001.275229

                             ****ORCA TERMINATED NORMALLY****
TOTAL RUN TIME: 0 days 0 hours 1 minutes 0 seconds 182 msec
