                         Program Version 4.2.0 -  RELEASE  -
|  1> #
|  2> # 08_TiF tpss/aug-cc-pvtz
|  3> #
|  4> ! tpss d3bj aug-cc-pvtz def2/j opt xyzfile
|  5>
|  6> *xyz 0 4
|  7> Ti 0.0 0.0 0.0
|  8> F 0.0 0.0 2.0
|  9> *
| 10>
| 11> %pal
| 12> nprocs 24
| 13> end
| 14>
| 15>
| 16>                          ****END OF INPUT****
 Total Charge           Charge          ....    0
 Multiplicity           Mult            ....    4
 Number of Electrons    NEL             ....   31
Dispersion correction           -0.000632081
FINAL SINGLE POINT ENERGY      -949.370244918510
Dispersion correction            ... done
Dispersion correction           -0.000623533
FINAL SINGLE POINT ENERGY      -949.375837930098
Dispersion correction            ... done
Dispersion correction           -0.000615277
FINAL SINGLE POINT ENERGY      -949.385071491065
Dispersion correction            ... done
Dispersion correction           -0.000615118
FINAL SINGLE POINT ENERGY      -949.385092915812
Dispersion correction            ... done
Dispersion correction           -0.000615173
FINAL SINGLE POINT ENERGY      -949.385099718842
Dispersion correction            ... done
                    ***********************HURRAY********************

CARTESIAN COORDINATES (ANGSTROEM)
---------------------------------
  Ti     0.000000    0.000000    0.110411
  F      0.000000    0.000000    1.889589

 Multiplicity           Mult            ....    4
 Number of Electrons    NEL             ....   31
 Basis Dimension        Dim             ....  139

ORBITAL ENERGIES
----------------
                 SPIN UP ORBITALS
  NO   OCC          E(Eh)            E(eV)
   0   1.0000    -178.114558     -4846.7435
   1   1.0000     -24.369730      -663.1341
   2   1.0000     -19.515410      -531.0413
   3   1.0000     -16.254722      -442.3135
   4   1.0000     -16.239943      -441.9113
   5   1.0000     -16.239943      -441.9113
   6   1.0000      -2.243019       -61.0356
   7   1.0000      -1.405896       -38.2564
   8   1.0000      -1.377654       -37.4879
   9   1.0000      -1.377654       -37.4879
  10   1.0000      -1.033463       -28.1220
  11   1.0000      -0.361912        -9.8481
  12   1.0000      -0.341515        -9.2931
  13   1.0000      -0.341515        -9.2931
  14   1.0000      -0.155484        -4.2309
  15   1.0000      -0.118539        -3.2256
  16   1.0000      -0.118524        -3.2252
  17   0.0000      -0.097820        -2.6618
  18   0.0000      -0.097820        -2.6618
  19   0.0000      -0.086808        -2.3622
  20   0.0000      -0.034357        -0.9349
  21   0.0000      -0.034357        -0.9349

                 SPIN DOWN ORBITALS
  NO   OCC          E(Eh)            E(eV)
   0   1.0000    -178.113948     -4846.7269
   1   1.0000     -24.371737      -663.1887
   2   1.0000     -19.495353      -530.4955
   3   1.0000     -16.247299      -442.1115
   4   1.0000     -16.219375      -441.3516
   5   1.0000     -16.219375      -441.3516
   6   1.0000      -2.178838       -59.2892
   7   1.0000      -1.376021       -37.4434
   8   1.0000      -1.292440       -35.1691
   9   1.0000      -1.292440       -35.1691
  10   1.0000      -1.035415       -28.1751
  11   1.0000      -0.360185        -9.8011
  12   1.0000      -0.342112        -9.3093
  13   1.0000      -0.342112        -9.3093
  14   0.0000      -0.089709        -2.4411
  15   0.0000      -0.054740        -1.4896
  16   0.0000      -0.054740        -1.4896
  17   0.0000      -0.045206        -1.2301
  18   0.0000      -0.026217        -0.7134

MULLIKEN ATOMIC CHARGES AND SPIN POPULATIONS
--------------------------------------------
   0 Ti:    0.555364    3.045980
   1 F :   -0.555364   -0.045980
Sum of atomic charges         :    0.0000000

LOEWDIN ATOMIC CHARGES AND SPIN POPULATIONS
-------------------------------------------
   0 Ti:    0.231481    2.957023
   1 F :   -0.231481    0.042977

  Mayer bond orders larger than 0.100000
B(  0-Ti,  1-F ) :   0.8813

Dispersion correction           -0.000615172
FINAL SINGLE POINT ENERGY      -949.385099707993

DIPOLE MOMENT
-------------
                                X             Y             Z
Electronic contribution:     -0.00000      -0.00000      -1.92710
Nuclear contribution   :      0.00000       0.00000       0.66059
                        -----------------------------------------
Total Dipole Moment    :     -0.00000      -0.00000      -1.26651
                        -----------------------------------------
Magnitude (a.u.)       :      1.26651
Magnitude (Debye)      :      3.21921

Rotational constants in cm-1:     0.000000     0.391496     0.391496
Rotational constants in MHz :     0.000000 11736.757371 11736.757371

                             ****ORCA TERMINATED NORMALLY****
TOTAL RUN TIME: 0 days 0 hours 1 minutes 1 seconds 594 msec
