                         Program Version 4.2.0 -  RELEASE  -
|  1> #
|  2> # 09_TiCl tpss/aug-cc-pvtz
|  3> #
|  4> ! tpss d3bj aug-cc-pvtz def2/j opt xyzfile
|  5>
|  6> *xyz 0 4
|  7> Ti 0.0 0.0 0.0
|  8> Cl 0.0 0.0 2.0
|  9> *
| 10>
| 11> %pal
| 12> nprocs 24
| 13> end
| 14>
| 15>
| 16>                          ****END OF INPUT****
 Total Charge           Charge          ....    0
 Multiplicity           Mult            ....    4
 Number of Electrons    NEL             ....   39
Dispersion correction           -0.001732591
FINAL SINGLE POINT ENERGY     -1309.718421103446
Dispersion correction            ... done
Dispersion correction           -0.001732502
FINAL SINGLE POINT ENERGY     -1309.723789886469
Dispersion correction            ... done
Dispersion correction           -0.001735155
FINAL SINGLE POINT ENERGY     -1309.734568226541
Dispersion correction            ... done
FINAL SINGLE POINT ENERGY     -1309.735839397237
Dispersion correction            ... done
Dispersion correction           -0.001741569
FINAL SINGLE POINT ENERGY     -1309.735976159537
Dispersion correction            ... done
Dispersion correction           -0.001742123
FINAL SINGLE POINT ENERGY     -1309.735974873169
Dispersion correction            ... done
                    ***********************HURRAY********************

CARTESIAN COORDINATES (ANGSTROEM)
---------------------------------
  Ti     0.000000    0.000000   -0.116802
  Cl     0.000000    0.000000    2.116802

 Multiplicity           Mult            ....    4
 Number of Electrons    NEL             ....   39
 Basis Dimension        Dim             ....  143

ORBITAL ENERGIES
----------------
                 SPIN UP ORBITALS
  NO   OCC          E(Eh)            E(eV)
   0   1.0000    -178.113370     -4846.7112
   1   1.0000    -100.981048     -2747.8340
   2   1.0000     -19.509030      -530.8677
   3   1.0000     -16.246888      -442.1003
   4   1.0000     -16.234342      -441.7589
   5   1.0000     -16.234342      -441.7589
   6   1.0000      -9.209141      -250.5935
   7   1.0000      -6.984400      -190.0552
   8   1.0000      -6.983224      -190.0232
   9   1.0000      -6.983224      -190.0232
  10   1.0000      -2.239966       -60.9526
  11   1.0000      -1.395998       -37.9870
  12   1.0000      -1.375005       -37.4158
  13   1.0000      -1.375005       -37.4158
  14   1.0000      -0.710812       -19.3422
  15   1.0000      -0.302755        -8.2384
  16   1.0000      -0.271855        -7.3975
  17   1.0000      -0.271855        -7.3975
  18   1.0000      -0.157693        -4.2910
  19   1.0000      -0.119252        -3.2450
  20   1.0000      -0.118870        -3.2346
  21   0.0000      -0.103296        -2.8108
  22   0.0000      -0.103296        -2.8108
  23   0.0000      -0.099916        -2.7188
  24   0.0000      -0.038854        -1.0573
  25   0.0000      -0.038854        -1.0573

                 SPIN DOWN ORBITALS
  NO   OCC          E(Eh)            E(eV)
   0   1.0000    -178.112916     -4846.6988
   1   1.0000    -100.981597     -2747.8489
   2   1.0000     -19.487769      -530.2892
   3   1.0000     -16.237568      -441.8467
   4   1.0000     -16.213339      -441.1874
   5   1.0000     -16.213339      -441.1874
   6   1.0000      -9.209644      -250.6071
   7   1.0000      -6.985271      -190.0789
   8   1.0000      -6.983875      -190.0409
   9   1.0000      -6.983875      -190.0409
  10   1.0000      -2.171310       -59.0844
  11   1.0000      -1.355076       -36.8735
  12   1.0000      -1.288403       -35.0592
  13   1.0000      -1.288403       -35.0592
  14   1.0000      -0.712913       -19.3993
  15   1.0000      -0.299335        -8.1453
  16   1.0000      -0.271458        -7.3868
  17   1.0000      -0.271458        -7.3868
  18   0.0000      -0.095212        -2.5908
  19   0.0000      -0.065024        -1.7694
  20   0.0000      -0.065024        -1.7694
  21   0.0000      -0.059064        -1.6072
  22   0.0000      -0.028011        -0.7622

MULLIKEN ATOMIC CHARGES AND SPIN POPULATIONS
--------------------------------------------
   0 Ti:    0.360890    3.028051
   1 Cl:   -0.360890   -0.028051
Sum of atomic charges         :   -0.0000000

LOEWDIN ATOMIC CHARGES AND SPIN POPULATIONS
-------------------------------------------
   0 Ti:   -0.205299    2.947276
   1 Cl:    0.205299    0.052724

  Mayer bond orders larger than 0.100000
B(  0-Ti,  1-Cl) :   1.2440

Dispersion correction           -0.001742158
FINAL SINGLE POINT ENERGY     -1309.735974513166

DIPOLE MOMENT
-------------
                                X             Y             Z
Electronic contribution:     -0.00000       0.00000      -3.53891
Nuclear contribution   :      0.00000       0.00000       1.73863
                        -----------------------------------------
Total Dipole Moment    :     -0.00000       0.00000      -1.80027
                        -----------------------------------------
Magnitude (a.u.)       :      1.80027
Magnitude (Debye)      :      4.57594

Rotational constants in cm-1:     0.000000     0.165851     0.165851
Rotational constants in MHz :     0.000000  4972.077671  4972.077671

                             ****ORCA TERMINATED NORMALLY****
TOTAL RUN TIME: 0 days 0 hours 1 minutes 17 seconds 522 msec
