                         Program Version 4.2.0 -  RELEASE  -
|  1> #
|  2> # 10_TiBr tpss/aug-cc-pvtz
|  3> #
|  4> ! tpss d3bj aug-cc-pvtz def2/j opt xyzfile
|  5>
|  6> *xyz 0 4
|  7> Ti 0.0 0.0 0.0
|  8> Br 0.0 0.0 2.0
|  9> *
| 10>
| 11> %pal
| 12> nprocs 24
| 13> end
| 14>
| 15>
| 16>                          ****END OF INPUT****
 Total Charge           Charge          ....    0
 Multiplicity           Mult            ....    4
 Number of Electrons    NEL             ....   57
Dispersion correction           -0.001938322
FINAL SINGLE POINT ENERGY     -3423.553798980274
Dispersion correction            ... done
Dispersion correction           -0.001937730
FINAL SINGLE POINT ENERGY     -3423.566830318569
Dispersion correction            ... done
Dispersion correction           -0.001936587
FINAL SINGLE POINT ENERGY     -3423.607210571608
Dispersion correction            ... done
FINAL SINGLE POINT ENERGY     -3423.615741515465
FINAL SINGLE POINT ENERGY     -3423.617482229055
Dispersion correction            ... done
Dispersion correction           -0.001949770
FINAL SINGLE POINT ENERGY     -3423.617670038807
Dispersion correction            ... done
Dispersion correction           -0.001950649
FINAL SINGLE POINT ENERGY     -3423.617674899629
Dispersion correction            ... done
                    ***********************HURRAY********************

CARTESIAN COORDINATES (ANGSTROEM)
---------------------------------
  Ti     0.000000    0.000000   -0.203733
  Br     0.000000    0.000000    2.203733

 Multiplicity           Mult            ....    4
 Number of Electrons    NEL             ....   57
 Basis Dimension        Dim             ....  152

ORBITAL ENERGIES
----------------
                 SPIN UP ORBITALS
  NO   OCC          E(Eh)            E(eV)
   0   1.0000    -481.704298    -13107.8403
   1   1.0000    -178.132932     -4847.2435
   2   1.0000     -61.917710     -1684.8666
   3   1.0000     -55.750692     -1517.0535
   4   1.0000     -55.750247     -1517.0413
   5   1.0000     -55.750244     -1517.0413
   6   1.0000     -19.530886      -531.4624
   7   1.0000     -16.260585      -442.4730
   8   1.0000     -16.260129      -442.4606
   9   1.0000     -16.260019      -442.4576
  10   1.0000      -8.444273      -229.7803
  11   1.0000      -6.281990      -170.9416
  12   1.0000      -6.280473      -170.9004
  13   1.0000      -6.280451      -170.8998
  14   1.0000      -2.451472       -66.7079
  15   1.0000      -2.450670       -66.6861
  16   1.0000      -2.450655       -66.6857
  17   1.0000      -2.449570       -66.6562
  18   1.0000      -2.449367       -66.6507
  19   1.0000      -2.260331       -61.5067
  20   1.0000      -1.404154       -38.2090
  21   1.0000      -1.399869       -38.0924
  22   1.0000      -1.399778       -38.0899
  23   1.0000      -0.673171       -18.3179
  24   1.0000      -0.285542        -7.7700
  25   1.0000      -0.254905        -6.9363
  26   1.0000      -0.254894        -6.9360
  27   1.0000      -0.159923        -4.3517
  28   1.0000      -0.156882        -4.2690
  29   1.0000      -0.156383        -4.2554
  30   0.0000      -0.109284        -2.9738
  31   0.0000      -0.109036        -2.9670
  32   0.0000      -0.103859        -2.8262
  33   0.0000      -0.047219        -1.2849
  34   0.0000      -0.047147        -1.2829

                 SPIN DOWN ORBITALS
  NO   OCC          E(Eh)            E(eV)
   0   1.0000    -481.704375    -13107.8424
   1   1.0000    -178.132360     -4847.2280
   2   1.0000     -61.917722     -1684.8669
   3   1.0000     -55.750811     -1517.0567
   4   1.0000     -55.750276     -1517.0421
   5   1.0000     -55.750270     -1517.0420
   6   1.0000     -19.509759      -530.8875
   7   1.0000     -16.246121      -442.0794
   8   1.0000     -16.241890      -441.9643
   9   1.0000     -16.241712      -441.9595
  10   1.0000      -8.444362      -229.7828
  11   1.0000      -6.282186      -170.9470
  12   1.0000      -6.280531      -170.9019
  13   1.0000      -6.280503      -170.9012
  14   1.0000      -2.451671       -66.7134
  15   1.0000      -2.450838       -66.6907
  16   1.0000      -2.450817       -66.6901
  17   1.0000      -2.449615       -66.6574
  18   1.0000      -2.449411       -66.6519
  19   1.0000      -2.192705       -59.6665
  20   1.0000      -1.341841       -36.5134
  21   1.0000      -1.327170       -36.1141
  22   1.0000      -1.326769       -36.1032
  23   1.0000      -0.673566       -18.3287
  24   1.0000      -0.281202        -7.6519
  25   1.0000      -0.251795        -6.8517
  26   1.0000      -0.251732        -6.8500
  27   0.0000      -0.108830        -2.9614
  28   0.0000      -0.078283        -2.1302
  29   0.0000      -0.078201        -2.1280
  30   0.0000      -0.066298        -1.8040
  31   0.0000      -0.058499        -1.5918

MULLIKEN ATOMIC CHARGES AND SPIN POPULATIONS
--------------------------------------------
   0 Ti:    0.347163    2.983275
   1 Br:   -0.347163    0.016725
Sum of atomic charges         :   -0.0000000

LOEWDIN ATOMIC CHARGES AND SPIN POPULATIONS
-------------------------------------------
   0 Ti:   -0.252795    2.887432
   1 Br:    0.252795    0.112568

  Mayer bond orders larger than 0.100000
B(  0-Ti,  1-Br) :   1.2833

Dispersion correction           -0.001950707
FINAL SINGLE POINT ENERGY     -3423.617674662628

DIPOLE MOMENT
-------------
                                X             Y             Z
Electronic contribution:     -0.00484       0.00201       1.27375
Nuclear contribution   :      0.00000       0.00000      -2.89414
                        -----------------------------------------
Total Dipole Moment    :     -0.00484       0.00201      -1.62038
                        -----------------------------------------
Magnitude (a.u.)       :      1.62039
Magnitude (Debye)      :      4.11870

Rotational constants in cm-1:     0.000000     0.097124     0.097124
Rotational constants in MHz :     0.000000  2911.693161  2911.693161

                             ****ORCA TERMINATED NORMALLY****
TOTAL RUN TIME: 0 days 0 hours 2 minutes 4 seconds 221 msec
