                         Program Version 4.2.0 -  RELEASE  -
|  1> #
|  2> # 11_TiO tpss/aug-cc-pvtz
|  3> #
|  4> ! tpss d3bj aug-cc-pvtz def2/j opt xyzfile
|  5>
|  6> *xyz 0 3
|  7> Ti 0.0 0.0 0.0
|  8> O 0.0 0.0 2.0
|  9> *
| 10>
| 11> %pal
| 12> nprocs 24
| 13> end
| 14>
| 15>
| 16>                          ****END OF INPUT****
 Total Charge           Charge          ....    0
 Multiplicity           Mult            ....    3
 Number of Electrons    NEL             ....   30
Dispersion correction           -0.000882824
FINAL SINGLE POINT ENERGY      -924.705620287893
Dispersion correction            ... done
Dispersion correction           -0.000859904
FINAL SINGLE POINT ENERGY      -924.730615375918
Dispersion correction            ... done
Dispersion correction           -0.000851968
FINAL SINGLE POINT ENERGY      -924.761306027951
Dispersion correction            ... done
FINAL SINGLE POINT ENERGY      -924.768359146984
FINAL SINGLE POINT ENERGY      -924.770054185003
Dispersion correction            ... done
Dispersion correction           -0.000851531
FINAL SINGLE POINT ENERGY      -924.770210125265
Dispersion correction            ... done
Dispersion correction           -0.000851533
FINAL SINGLE POINT ENERGY      -924.770213540537
Dispersion correction            ... done
                    ***********************HURRAY********************

CARTESIAN COORDINATES (ANGSTROEM)
---------------------------------
  Ti     0.000000    0.000000    0.188782
  O      0.000000    0.000000    1.811218

 Multiplicity           Mult            ....    3
 Number of Electrons    NEL             ....   30
 Basis Dimension        Dim             ....  139

ORBITAL ENERGIES
----------------
                 SPIN UP ORBITALS
  NO   OCC          E(Eh)            E(eV)
   0   1.0000    -178.142016     -4847.4907
   1   1.0000     -19.546586      -531.8896
   2   1.0000     -18.859044      -513.1807
   3   1.0000     -16.276703      -442.9116
   4   1.0000     -16.276703      -442.9116
   5   1.0000     -16.276338      -442.9017
   6   1.0000      -2.261217       -61.5308
   7   1.0000      -1.412666       -38.4406
   8   1.0000      -1.402124       -38.1537
   9   1.0000      -1.402124       -38.1537
  10   1.0000      -0.791494       -21.5376
  11   1.0000      -0.279937        -7.6175
  12   1.0000      -0.278202        -7.5702
  13   1.0000      -0.278202        -7.5702
  14   1.0000      -0.164169        -4.4673
  15   1.0000      -0.158826        -4.3219
  16   0.0000      -0.109159        -2.9704
  17   0.0000      -0.092548        -2.5184
  18   0.0000      -0.092548        -2.5184
  19   0.0000      -0.066982        -1.8227
  20   0.0000      -0.018792        -0.5114

                 SPIN DOWN ORBITALS
  NO   OCC          E(Eh)            E(eV)
   0   1.0000    -178.141391     -4847.4737
   1   1.0000     -19.534578      -531.5629
   2   1.0000     -18.862859      -513.2845
   3   1.0000     -16.271079      -442.7586
   4   1.0000     -16.264800      -442.5877
   5   1.0000     -16.264800      -442.5877
   6   1.0000      -2.223456       -60.5033
   7   1.0000      -1.391710       -37.8703
   8   1.0000      -1.354389       -36.8548
   9   1.0000      -1.354389       -36.8548
  10   1.0000      -0.797212       -21.6932
  11   1.0000      -0.278534        -7.5793
  12   1.0000      -0.278534        -7.5793
  13   1.0000      -0.276949        -7.5362
  14   0.0000      -0.110236        -2.9997
  15   0.0000      -0.092987        -2.5303
  16   0.0000      -0.068726        -1.8701
  17   0.0000      -0.061385        -1.6704
  18   0.0000      -0.061385        -1.6704

MULLIKEN ATOMIC CHARGES AND SPIN POPULATIONS
--------------------------------------------
   0 Ti:    0.546381    2.106394
   1 O :   -0.546381   -0.106394
Sum of atomic charges         :   -0.0000000

LOEWDIN ATOMIC CHARGES AND SPIN POPULATIONS
-------------------------------------------
   0 Ti:    0.579375    1.966415
   1 O :   -0.579375    0.033585

  Mayer bond orders larger than 0.100000
B(  0-Ti,  1-O ) :   2.3311

Dispersion correction           -0.000851533
FINAL SINGLE POINT ENERGY      -924.770212505115

DIPOLE MOMENT
-------------
                                X             Y             Z
Electronic contribution:      0.00000      -0.00000      -2.83184
Nuclear contribution   :      0.00000       0.00000       1.49807
                        -----------------------------------------
Total Dipole Moment    :      0.00000      -0.00000      -1.33377
                        -----------------------------------------
Magnitude (a.u.)       :      1.33377
Magnitude (Debye)      :      3.39017

Rotational constants in cm-1:     0.000000     0.533983     0.533983
Rotational constants in MHz :     0.000000 16008.413204 16008.413204

                             ****ORCA TERMINATED NORMALLY****
TOTAL RUN TIME: 0 days 0 hours 1 minutes 27 seconds 912 msec
