                         Program Version 4.2.0 -  RELEASE  -
|  1> #
|  2> # 12_TiS tpss/aug-cc-pvtz
|  3> #
|  4> ! tpss d3bj aug-cc-pvtz def2/j opt xyzfile
|  5>
|  6> *xyz 0 3
|  7> Ti 0.0 0.0 0.0
|  8> S 0.0 0.0 2.0
|  9> *
| 10>
| 11> %pal
| 12> nprocs 24
| 13> end
| 14>
| 15>
| 16>                          ****END OF INPUT****
 Total Charge           Charge          ....    0
 Multiplicity           Mult            ....    3
 Number of Electrons    NEL             ....   38
Dispersion correction           -0.001984308
FINAL SINGLE POINT ENERGY     -1247.729309143336
Dispersion correction            ... done
Dispersion correction           -0.001984221
FINAL SINGLE POINT ENERGY     -1247.730333816363
Dispersion correction            ... done
Dispersion correction           -0.001984210
FINAL SINGLE POINT ENERGY     -1247.732687556008
Dispersion correction            ... done
Dispersion correction           -0.001984305
FINAL SINGLE POINT ENERGY     -1247.732748271427
Dispersion correction            ... done
Dispersion correction           -0.001984325
FINAL SINGLE POINT ENERGY     -1247.732748695502
Dispersion correction            ... done
                    ***********************HURRAY********************

CARTESIAN COORDINATES (ANGSTROEM)
---------------------------------
  Ti     0.000000    0.000000   -0.043548
  S      0.000000    0.000000    2.043548

 Multiplicity           Mult            ....    3
 Number of Electrons    NEL             ....   38
 Basis Dimension        Dim             ....  143

ORBITAL ENERGIES
----------------
                 SPIN UP ORBITALS
  NO   OCC          E(Eh)            E(eV)
   0   1.0000    -178.148293     -4847.6615
   1   1.0000     -88.334002     -2403.6904
   2   1.0000     -19.549533      -531.9698
   3   1.0000     -16.279986      -443.0009
   4   1.0000     -16.279986      -443.0009
   5   1.0000     -16.278086      -442.9492
   6   1.0000      -7.690830      -209.2781
   7   1.0000      -5.668646      -154.2517
   8   1.0000      -5.668646      -154.2517
   9   1.0000      -5.667217      -154.2128
  10   1.0000      -2.266750       -61.6814
  11   1.0000      -1.407738       -38.3065
  12   1.0000      -1.407738       -38.3065
  13   1.0000      -1.407134       -38.2901
  14   1.0000      -0.568063       -15.4578
  15   1.0000      -0.240093        -6.5333
  16   1.0000      -0.219509        -5.9731
  17   1.0000      -0.219509        -5.9731
  18   1.0000      -0.170594        -4.6421
  19   1.0000      -0.164673        -4.4810
  20   0.0000      -0.117310        -3.1922
  21   0.0000      -0.110046        -2.9945
  22   0.0000      -0.110046        -2.9945
  23   0.0000      -0.096555        -2.6274
  24   0.0000      -0.032930        -0.8961

                 SPIN DOWN ORBITALS
  NO   OCC          E(Eh)            E(eV)
   0   1.0000    -178.147838     -4847.6491
   1   1.0000     -88.335197     -2403.7229
   2   1.0000     -19.534759      -531.5678
   3   1.0000     -16.269359      -442.7118
   4   1.0000     -16.266559      -442.6356
   5   1.0000     -16.266559      -442.6356
   6   1.0000      -7.691872      -209.3065
   7   1.0000      -5.670225      -154.2947
   8   1.0000      -5.670225      -154.2947
   9   1.0000      -5.668795      -154.2558
  10   1.0000      -2.219696       -60.4010
  11   1.0000      -1.368345       -37.2346
  12   1.0000      -1.354601       -36.8606
  13   1.0000      -1.354601       -36.8606
  14   1.0000      -0.574943       -15.6450
  15   1.0000      -0.234710        -6.3868
  16   1.0000      -0.219098        -5.9620
  17   1.0000      -0.219098        -5.9620
  18   0.0000      -0.115226        -3.1355
  19   0.0000      -0.095477        -2.5981
  20   0.0000      -0.085131        -2.3165
  21   0.0000      -0.085131        -2.3165
  22   0.0000      -0.072602        -1.9756

MULLIKEN ATOMIC CHARGES AND SPIN POPULATIONS
--------------------------------------------
   0 Ti:    0.200546    2.201309
   1 S :   -0.200546   -0.201309
Sum of atomic charges         :   -0.0000000

LOEWDIN ATOMIC CHARGES AND SPIN POPULATIONS
-------------------------------------------
   0 Ti:    0.004763    2.027222
   1 S :   -0.004763   -0.027222

  Mayer bond orders larger than 0.100000
B(  0-Ti,  1-S ) :   2.5773

Dispersion correction           -0.001984326
FINAL SINGLE POINT ENERGY     -1247.732748679583

DIPOLE MOMENT
-------------
                                X             Y             Z
Electronic contribution:      0.00000      -0.00000      -5.08093
Nuclear contribution   :      0.00000       0.00000       3.01278
                        -----------------------------------------
Total Dipole Moment    :      0.00000      -0.00000      -2.06815
                        -----------------------------------------
Magnitude (a.u.)       :      2.06815
Magnitude (Debye)      :      5.25681

Rotational constants in cm-1:     0.000000     0.201505     0.201505
Rotational constants in MHz :     0.000000  6040.970749  6040.970749

                             ****ORCA TERMINATED NORMALLY****
TOTAL RUN TIME: 0 days 0 hours 1 minutes 2 seconds 199 msec
