                         Program Version 4.2.0 -  RELEASE  -
|  1> #
|  2> # 13_VH tpss/aug-cc-pvtz
|  3> #
|  4> ! tpss d3bj aug-cc-pvtz def2/j opt xyzfile
|  5>
|  6> *xyz 0 5
|  7> V 0.0 0.0 0.0
|  8> H 0.0 0.0 2.0
|  9> *
| 10>
| 11> %pal
| 12> nprocs 24
| 13> end
| 14>
| 15>
| 16>                          ****END OF INPUT****
 Total Charge           Charge          ....    0
 Multiplicity           Mult            ....    5
 Number of Electrons    NEL             ....   24
Dispersion correction           -0.000979931
FINAL SINGLE POINT ENERGY      -944.545635216661
Dispersion correction            ... done
Dispersion correction           -0.000829233
FINAL SINGLE POINT ENERGY      -944.552576651886
Dispersion correction            ... done
Dispersion correction           -0.000663402
FINAL SINGLE POINT ENERGY      -944.557313744680
Dispersion correction            ... done
FINAL SINGLE POINT ENERGY      -944.557426306719
Dispersion correction            ... done
Dispersion correction           -0.000647605
FINAL SINGLE POINT ENERGY      -944.557441875801
Dispersion correction            ... done
Dispersion correction           -0.000647303
FINAL SINGLE POINT ENERGY      -944.557441780627
Dispersion correction            ... done
                    ***********************HURRAY********************

CARTESIAN COORDINATES (ANGSTROEM)
---------------------------------
  V      0.000000    0.000000    0.155414
  H      0.000000    0.000000    1.844586

 Multiplicity           Mult            ....    5
 Number of Electrons    NEL             ....   24
 Basis Dimension        Dim             ....  116

ORBITAL ENERGIES
----------------
                 SPIN UP ORBITALS
  NO   OCC          E(Eh)            E(eV)
   0   1.0000    -196.083981     -5335.7164
   1   1.0000     -21.858430      -594.7981
   2   1.0000     -18.377482      -500.0767
   3   1.0000     -18.377482      -500.0767
   4   1.0000     -18.367774      -499.8125
   5   1.0000      -2.507630       -68.2361
   6   1.0000      -1.569723       -42.7143
   7   1.0000      -1.569723       -42.7143
   8   1.0000      -1.558182       -42.4003
   9   1.0000      -0.241833        -6.5806
  10   1.0000      -0.175238        -4.7685
  11   1.0000      -0.156884        -4.2690
  12   1.0000      -0.156884        -4.2690
  13   1.0000      -0.151434        -4.1207
  14   0.0000      -0.126462        -3.4412
  15   0.0000      -0.084186        -2.2908
  16   0.0000      -0.049205        -1.3389
  17   0.0000      -0.049205        -1.3389
  18   0.0000      -0.000409        -0.0111

                 SPIN DOWN ORBITALS
  NO   OCC          E(Eh)            E(eV)
   0   1.0000    -196.083362     -5335.6995
   1   1.0000     -21.822444      -593.8189
   2   1.0000     -18.349273      -499.3091
   3   1.0000     -18.349273      -499.3091
   4   1.0000     -18.337218      -498.9811
   5   1.0000      -2.399256       -65.2871
   6   1.0000      -1.464798       -39.8592
   7   1.0000      -1.464798       -39.8592
   8   1.0000      -1.435152       -39.0525
   9   1.0000      -0.230392        -6.2693
  10   0.0000      -0.093165        -2.5352
  11   0.0000      -0.071225        -1.9381
  12   0.0000      -0.046486        -1.2649
  13   0.0000      -0.039957        -1.0873
  14   0.0000      -0.039957        -1.0873

MULLIKEN ATOMIC CHARGES AND SPIN POPULATIONS
--------------------------------------------
   0 V :    0.181275    4.129990
   1 H :   -0.181275   -0.129990
Sum of atomic charges         :   -0.0000000

LOEWDIN ATOMIC CHARGES AND SPIN POPULATIONS
-------------------------------------------
   0 V :    0.721094    3.824954
   1 H :   -0.721094    0.175046

  Mayer bond orders larger than 0.100000
B(  0-V ,  1-H ) :   0.9701

Dispersion correction           -0.000647296
FINAL SINGLE POINT ENERGY      -944.557442013708

DIPOLE MOMENT
-------------
                                X             Y             Z
Electronic contribution:     -0.00000       0.00000      -2.67423
Nuclear contribution   :      0.00000       0.00000       1.70553
                        -----------------------------------------
Total Dipole Moment    :     -0.00000       0.00000      -0.96870
                        -----------------------------------------
Magnitude (a.u.)       :      0.96870
Magnitude (Debye)      :      2.46223

Rotational constants in cm-1:     0.000000     5.977214     5.977214
Rotational constants in MHz :     0.000000 179192.381350 179192.381350

                             ****ORCA TERMINATED NORMALLY****
TOTAL RUN TIME: 0 days 0 hours 1 minutes 5 seconds 302 msec
