                         Program Version 4.2.0 -  RELEASE  -
|  1> #
|  2> # 14_VF tpss/aug-cc-pvtz
|  3> #
|  4> ! tpss d3bj aug-cc-pvtz def2/j opt xyzfile
|  5>
|  6> *xyz 0 5
|  7> V 0.0 0.0 0.0
|  8> F 0.0 0.0 2.0
|  9> *
| 10>
| 11> %pal
| 12> nprocs 24
| 13> end
| 14>
| 15>
| 16>                          ****END OF INPUT****
 Total Charge           Charge          ....    0
 Multiplicity           Mult            ....    5
 Number of Electrons    NEL             ....   32
Dispersion correction           -0.000670699
FINAL SINGLE POINT ENERGY     -1043.921063656401
Dispersion correction            ... done
Dispersion correction           -0.000661428
FINAL SINGLE POINT ENERGY     -1043.924794081433
Dispersion correction            ... done
Dispersion correction           -0.000649057
FINAL SINGLE POINT ENERGY     -1043.930653450330
Dispersion correction            ... done
FINAL SINGLE POINT ENERGY     -1043.930785450171
Dispersion correction            ... done
Dispersion correction           -0.000649670
FINAL SINGLE POINT ENERGY     -1043.930818120662
Dispersion correction            ... done
Dispersion correction           -0.000649654
FINAL SINGLE POINT ENERGY     -1043.930818438173
Dispersion correction            ... done
                    ***********************HURRAY********************

CARTESIAN COORDINATES (ANGSTROEM)
---------------------------------
  V      0.000000    0.000000    0.091372
  F      0.000000    0.000000    1.908628

 Multiplicity           Mult            ....    5
 Number of Electrons    NEL             ....   32
 Basis Dimension        Dim             ....  139

ORBITAL ENERGIES
----------------
                 SPIN UP ORBITALS
  NO   OCC          E(Eh)            E(eV)
   0   1.0000    -196.114431     -5336.5450
   1   1.0000     -24.343496      -662.4202
   2   1.0000     -21.893129      -595.7423
   3   1.0000     -18.411869      -501.0124
   4   1.0000     -18.411869      -501.0124
   5   1.0000     -18.402947      -500.7696
   6   1.0000      -2.539414       -69.1010
   7   1.0000      -1.599546       -43.5259
   8   1.0000      -1.599546       -43.5259
   9   1.0000      -1.593739       -43.3679
  10   1.0000      -1.016017       -27.6472
  11   1.0000      -0.343287        -9.3413
  12   1.0000      -0.323429        -8.8010
  13   1.0000      -0.323429        -8.8010
  14   1.0000      -0.200022        -5.4429
  15   1.0000      -0.170278        -4.6335
  16   1.0000      -0.166793        -4.5387
  17   1.0000      -0.166793        -4.5387
  18   0.0000      -0.149921        -4.0796
  19   0.0000      -0.097993        -2.6665
  20   0.0000      -0.043669        -1.1883
  21   0.0000      -0.043669        -1.1883
  22   0.0000      -0.000161        -0.0044

                 SPIN DOWN ORBITALS
  NO   OCC          E(Eh)            E(eV)
   0   1.0000    -196.113475     -5336.5190
   1   1.0000     -24.342227      -662.3857
   2   1.0000     -21.858170      -594.7910
   3   1.0000     -18.383790      -500.2484
   4   1.0000     -18.383790      -500.2484
   5   1.0000     -18.374303      -499.9902
   6   1.0000      -2.435922       -66.2848
   7   1.0000      -1.497375       -40.7456
   8   1.0000      -1.497375       -40.7456
   9   1.0000      -1.482662       -40.3453
  10   1.0000      -1.011848       -27.5338
  11   1.0000      -0.339327        -9.2336
  12   1.0000      -0.311673        -8.4811
  13   1.0000      -0.311673        -8.4811
  14   0.0000      -0.100571        -2.7367
  15   0.0000      -0.096643        -2.6298
  16   0.0000      -0.069181        -1.8825
  17   0.0000      -0.048923        -1.3313
  18   0.0000      -0.048923        -1.3313

MULLIKEN ATOMIC CHARGES AND SPIN POPULATIONS
--------------------------------------------
   0 V :    0.573042    3.966057
   1 F :   -0.573042    0.033943
Sum of atomic charges         :   -0.0000000

LOEWDIN ATOMIC CHARGES AND SPIN POPULATIONS
-------------------------------------------
   0 V :    0.363054    3.828067
   1 F :   -0.363054    0.171933

  Mayer bond orders larger than 0.100000
B(  0-V ,  1-F ) :   0.8382

Dispersion correction           -0.000649654
FINAL SINGLE POINT ENERGY     -1043.930818380901

DIPOLE MOMENT
-------------
                                X             Y             Z
Electronic contribution:      0.00000       0.00000      -2.22702
Nuclear contribution   :      0.00000       0.00000       1.05599
                        -----------------------------------------
Total Dipole Moment    :      0.00000       0.00000      -1.17102
                        -----------------------------------------
Magnitude (a.u.)       :      1.17102
Magnitude (Debye)      :      2.97650

Rotational constants in cm-1:     0.000000     0.368902     0.368902
Rotational constants in MHz :     0.000000 11059.411965 11059.411965

                             ****ORCA TERMINATED NORMALLY****
TOTAL RUN TIME: 0 days 0 hours 1 minutes 6 seconds 924 msec
