                         Program Version 4.2.0 -  RELEASE  -
|  1> #
|  2> # 15_VCl tpss/aug-cc-pvtz
|  3> #
|  4> ! tpss d3bj aug-cc-pvtz def2/j opt xyzfile
|  5>
|  6> *xyz 0 5
|  7> V 0.0 0.0 0.0
|  8> Cl 0.0 0.0 2.0
|  9> *
| 10>
| 11> %pal
| 12> nprocs 24
| 13> end
| 14>
| 15>
| 16>                          ****END OF INPUT****
 Total Charge           Charge          ....    0
 Multiplicity           Mult            ....    5
 Number of Electrons    NEL             ....   40
Dispersion correction           -0.001847939
FINAL SINGLE POINT ENERGY     -1404.283262246123
Dispersion correction            ... done
Dispersion correction           -0.001847959
FINAL SINGLE POINT ENERGY     -1404.287168354567
Dispersion correction            ... done
Dispersion correction           -0.001851375
FINAL SINGLE POINT ENERGY     -1404.295918507780
Dispersion correction            ... done
FINAL SINGLE POINT ENERGY     -1404.296825691313
Dispersion correction            ... done
Dispersion correction           -0.001857711
FINAL SINGLE POINT ENERGY     -1404.296902597387
Dispersion correction            ... done
Dispersion correction           -0.001858138
FINAL SINGLE POINT ENERGY     -1404.296899777668
Dispersion correction            ... done
                    ***********************HURRAY********************

CARTESIAN COORDINATES (ANGSTROEM)
---------------------------------
  V      0.000000    0.000000   -0.105913
  Cl     0.000000    0.000000    2.105913

 Multiplicity           Mult            ....    5
 Number of Electrons    NEL             ....   40
 Basis Dimension        Dim             ....  143

ORBITAL ENERGIES
----------------
                 SPIN UP ORBITALS
  NO   OCC          E(Eh)            E(eV)
   0   1.0000    -196.096337     -5336.0526
   1   1.0000    -100.981503     -2747.8464
   2   1.0000     -21.869771      -595.1067
   3   1.0000     -18.389254      -500.3970
   4   1.0000     -18.386210      -500.3142
   5   1.0000     -18.381589      -500.1885
   6   1.0000      -9.209222      -250.5957
   7   1.0000      -6.984857      -190.0676
   8   1.0000      -6.983671      -190.0354
   9   1.0000      -6.982720      -190.0095
  10   1.0000      -2.520311       -68.5811
  11   1.0000      -1.587086       -43.1868
  12   1.0000      -1.579532       -42.9812
  13   1.0000      -1.570590       -42.7379
  14   1.0000      -0.711694       -19.3662
  15   1.0000      -0.308337        -8.3903
  16   1.0000      -0.275226        -7.4893
  17   1.0000      -0.274395        -7.4667
  18   1.0000      -0.179204        -4.8764
  19   1.0000      -0.163689        -4.4542
  20   1.0000      -0.161683        -4.3996
  21   1.0000      -0.155131        -4.2213
  22   0.0000      -0.132703        -3.6110
  23   0.0000      -0.113301        -3.0831
  24   0.0000      -0.042842        -1.1658
  25   0.0000      -0.039779        -1.0825
  26   0.0000      -0.003044        -0.0828

                 SPIN DOWN ORBITALS
  NO   OCC          E(Eh)            E(eV)
   0   1.0000    -196.095678     -5336.0347
   1   1.0000    -100.981931     -2747.8580
   2   1.0000     -21.833589      -594.1222
   3   1.0000     -18.365701      -499.7561
   4   1.0000     -18.356473      -499.5050
   5   1.0000     -18.347327      -499.2562
   6   1.0000      -9.209606      -250.6061
   7   1.0000      -6.985794      -190.0931
   8   1.0000      -6.984511      -190.0582
   9   1.0000      -6.982622      -190.0068
  10   1.0000      -2.411671       -65.6249
  11   1.0000      -1.493877       -40.6505
  12   1.0000      -1.467530       -39.9335
  13   1.0000      -1.442048       -39.2401
  14   1.0000      -0.713001       -19.4017
  15   1.0000      -0.301418        -8.2020
  16   1.0000      -0.273389        -7.4393
  17   1.0000      -0.267741        -7.2856
  18   0.0000      -0.098056        -2.6682
  19   0.0000      -0.079171        -2.1544
  20   0.0000      -0.058663        -1.5963
  21   0.0000      -0.048172        -1.3108
  22   0.0000      -0.044878        -1.2212

MULLIKEN ATOMIC CHARGES AND SPIN POPULATIONS
--------------------------------------------
   0 V :    0.370685    4.040053
   1 Cl:   -0.370685   -0.040053
Sum of atomic charges         :   -0.0000000

LOEWDIN ATOMIC CHARGES AND SPIN POPULATIONS
-------------------------------------------
   0 V :   -0.066523    3.906830
   1 Cl:    0.066523    0.093170

  Mayer bond orders larger than 0.100000
B(  0-V ,  1-Cl) :   1.1762

Dispersion correction           -0.001858160
FINAL SINGLE POINT ENERGY     -1404.296901586968

DIPOLE MOMENT
-------------
                                X             Y             Z
Electronic contribution:      0.00000       0.00000      -4.04730
Nuclear contribution   :      0.00000       0.00000       2.44617
                        -----------------------------------------
Total Dipole Moment    :      0.00000       0.00000      -1.60113
                        -----------------------------------------
Magnitude (a.u.)       :      1.60113
Magnitude (Debye)      :      4.06976

Rotational constants in cm-1:     0.000000     0.164840     0.164840
Rotational constants in MHz :     0.000000  4941.766851  4941.766851

                             ****ORCA TERMINATED NORMALLY****
TOTAL RUN TIME: 0 days 0 hours 1 minutes 13 seconds 69 msec
