                         Program Version 4.2.0 -  RELEASE  -
|  1> #
|  2> # 16_VBr tpss/aug-cc-pvtz
|  3> #
|  4> ! tpss d3bj aug-cc-pvtz def2/j opt xyzfile
|  5>
|  6> *xyz 0 5
|  7> V 0.0 0.0 0.0
|  8> Br 0.0 0.0 2.0
|  9> *
| 10>
| 11> %pal
| 12> nprocs 24
| 13> end
| 14>
| 15>
| 16>                          ****END OF INPUT****
 Total Charge           Charge          ....    0
 Multiplicity           Mult            ....    5
 Number of Electrons    NEL             ....   58
Dispersion correction           -0.002075292
FINAL SINGLE POINT ENERGY     -3518.124732008539
Dispersion correction            ... done
Dispersion correction           -0.002074736
FINAL SINGLE POINT ENERGY     -3518.134955809921
Dispersion correction            ... done
Dispersion correction           -0.002073847
FINAL SINGLE POINT ENERGY     -3518.160395090606
Dispersion correction            ... done
FINAL SINGLE POINT ENERGY     -3518.165498258215
FINAL SINGLE POINT ENERGY     -3518.166677602603
Dispersion correction            ... done
Dispersion correction           -0.002084064
FINAL SINGLE POINT ENERGY     -3518.166766947067
Dispersion correction            ... done
Dispersion correction           -0.002084538
FINAL SINGLE POINT ENERGY     -3518.166767127560
Dispersion correction            ... done
                    ***********************HURRAY********************

CARTESIAN COORDINATES (ANGSTROEM)
---------------------------------
  V      0.000000    0.000000   -0.180452
  Br     0.000000    0.000000    2.180452

 Multiplicity           Mult            ....    5
 Number of Electrons    NEL             ....   58
 Basis Dimension        Dim             ....  152

ORBITAL ENERGIES
----------------
                 SPIN UP ORBITALS
  NO   OCC          E(Eh)            E(eV)
   0   1.0000    -481.706572    -13107.9022
   1   1.0000    -196.094980     -5336.0157
   2   1.0000     -61.919869     -1684.9253
   3   1.0000     -55.752822     -1517.1114
   4   1.0000     -55.752496     -1517.1026
   5   1.0000     -55.752220     -1517.0950
   6   1.0000     -21.867431      -595.0431
   7   1.0000     -18.386643      -500.3260
   8   1.0000     -18.383907      -500.2515
   9   1.0000     -18.379503      -500.1317
  10   1.0000      -8.446390      -229.8380
  11   1.0000      -6.284301      -171.0045
  12   1.0000      -6.283224      -170.9752
  13   1.0000      -6.281695      -170.9336
  14   1.0000      -2.519163       -68.5499
  15   1.0000      -2.453825       -66.7720
  16   1.0000      -2.453332       -66.7586
  17   1.0000      -2.452275       -66.7298
  18   1.0000      -2.451490       -66.7084
  19   1.0000      -2.451116       -66.6983
  20   1.0000      -1.585772       -43.1511
  21   1.0000      -1.578641       -42.9570
  22   1.0000      -1.569478       -42.7077
  23   1.0000      -0.674543       -18.3553
  24   1.0000      -0.291717        -7.9380
  25   1.0000      -0.256826        -6.9886
  26   1.0000      -0.256146        -6.9701
  27   1.0000      -0.179950        -4.8967
  28   1.0000      -0.163779        -4.4567
  29   1.0000      -0.161428        -4.3927
  30   1.0000      -0.154596        -4.2068
  31   0.0000      -0.133434        -3.6309
  32   0.0000      -0.115566        -3.1447
  33   0.0000      -0.044274        -1.2048
  34   0.0000      -0.041062        -1.1174
  35   0.0000      -0.004303        -0.1171

                 SPIN DOWN ORBITALS
  NO   OCC          E(Eh)            E(eV)
   0   1.0000    -481.706758    -13107.9073
   1   1.0000    -196.094361     -5335.9988
   2   1.0000     -61.919910     -1684.9264
   3   1.0000     -55.753054     -1517.1177
   4   1.0000     -55.752708     -1517.1083
   5   1.0000     -55.752215     -1517.0949
   6   1.0000     -21.830942      -594.0501
   7   1.0000     -18.362511      -499.6693
   8   1.0000     -18.354125      -499.4411
   9   1.0000     -18.345154      -499.1970
  10   1.0000      -8.446623      -229.8443
  11   1.0000      -6.284715      -171.0158
  12   1.0000      -6.283597      -170.9854
  13   1.0000      -6.281702      -170.9338
  14   1.0000      -2.454412       -66.7879
  15   1.0000      -2.453887       -66.7737
  16   1.0000      -2.452507       -66.7361
  17   1.0000      -2.451693       -66.7140
  18   1.0000      -2.451248       -66.7018
  19   1.0000      -2.409334       -65.5613
  20   1.0000      -1.489958       -40.5438
  21   1.0000      -1.466080       -39.8941
  22   1.0000      -1.440599       -39.2007
  23   1.0000      -0.676150       -18.3990
  24   1.0000      -0.284059        -7.7296
  25   1.0000      -0.255069        -6.9408
  26   1.0000      -0.249803        -6.7975
  27   0.0000      -0.099432        -2.7057
  28   0.0000      -0.080077        -2.1790
  29   0.0000      -0.060427        -1.6443
  30   0.0000      -0.049787        -1.3548
  31   0.0000      -0.045004        -1.2246

MULLIKEN ATOMIC CHARGES AND SPIN POPULATIONS
--------------------------------------------
   0 V :    0.305485    4.053831
   1 Br:   -0.305485   -0.053831
Sum of atomic charges         :   -0.0000000

LOEWDIN ATOMIC CHARGES AND SPIN POPULATIONS
-------------------------------------------
   0 V :   -0.159402    3.919328
   1 Br:    0.159402    0.080672

  Mayer bond orders larger than 0.100000
B(  0-V ,  1-Br) :   1.2864

Dispersion correction           -0.002084561
FINAL SINGLE POINT ENERGY     -3518.166769258954

DIPOLE MOMENT
-------------
                                X             Y             Z
Electronic contribution:     -0.00000      -0.00000       0.21901
Nuclear contribution   :      0.00000       0.00000      -1.86860
                        -----------------------------------------
Total Dipole Moment    :     -0.00000      -0.00000      -1.64960
                        -----------------------------------------
Magnitude (a.u.)       :      1.64960
Magnitude (Debye)      :      4.19294

Rotational constants in cm-1:     0.000000     0.097224     0.097224
Rotational constants in MHz :     0.000000  2914.715129  2914.715129

                             ****ORCA TERMINATED NORMALLY****
TOTAL RUN TIME: 0 days 0 hours 1 minutes 38 seconds 983 msec
