                         Program Version 4.2.0 -  RELEASE  -
|  1> #
|  2> # 17_VO tpss/aug-cc-pvtz
|  3> #
|  4> ! tpss d3bj aug-cc-pvtz def2/j opt xyzfile
|  5>
|  6> *xyz 0 4
|  7> V 0.0 0.0 0.0
|  8> O 0.0 0.0 2.0
|  9> *
| 10>
| 11> %pal
| 12> nprocs 24
| 13> end
| 14>
| 15>
| 16>                          ****END OF INPUT****
 Total Charge           Charge          ....    0
 Multiplicity           Mult            ....    4
 Number of Electrons    NEL             ....   31
Dispersion correction           -0.000941753
FINAL SINGLE POINT ENERGY     -1019.241418271275
Dispersion correction            ... done
Dispersion correction           -0.000914177
FINAL SINGLE POINT ENERGY     -1019.262729623933
Dispersion correction            ... done
Dispersion correction           -0.000902158
FINAL SINGLE POINT ENERGY     -1019.294643760718
Dispersion correction            ... done
FINAL SINGLE POINT ENERGY     -1019.309678133938
Dispersion correction            ... done
Dispersion correction           -0.000901224
FINAL SINGLE POINT ENERGY     -1019.309688459506
Dispersion correction            ... done
Dispersion correction           -0.000901231
FINAL SINGLE POINT ENERGY     -1019.309703088103
Dispersion correction            ... done
                    ***********************HURRAY********************

CARTESIAN COORDINATES (ANGSTROEM)
---------------------------------
  V      0.000000    0.000000    0.204156
  O      0.000000    0.000000    1.795844

 Multiplicity           Mult            ....    4
 Number of Electrons    NEL             ....   31
 Basis Dimension        Dim             ....  139

ORBITAL ENERGIES
----------------
                 SPIN UP ORBITALS
  NO   OCC          E(Eh)            E(eV)
   0   1.0000    -196.115893     -5336.5848
   1   1.0000     -21.895712      -595.8126
   2   1.0000     -18.875886      -513.6390
   3   1.0000     -18.419704      -501.2256
   4   1.0000     -18.408415      -500.9184
   5   1.0000     -18.408415      -500.9184
   6   1.0000      -2.528795       -68.8120
   7   1.0000      -1.604660       -43.6650
   8   1.0000      -1.582025       -43.0491
   9   1.0000      -1.582025       -43.0491
  10   1.0000      -0.810555       -22.0563
  11   1.0000      -0.304795        -8.2939
  12   1.0000      -0.292126        -7.9492
  13   1.0000      -0.292126        -7.9492
  14   1.0000      -0.168404        -4.5825
  15   1.0000      -0.163281        -4.4431
  16   1.0000      -0.163248        -4.4422
  17   0.0000      -0.112092        -3.0502
  18   0.0000      -0.112092        -3.0502
  19   0.0000      -0.082470        -2.2441
  20   0.0000      -0.022806        -0.6206
  21   0.0000      -0.022806        -0.6206

                 SPIN DOWN ORBITALS
  NO   OCC          E(Eh)            E(eV)
   0   1.0000    -196.115198     -5336.5658
   1   1.0000     -21.869051      -595.0871
   2   1.0000     -18.883653      -513.8503
   3   1.0000     -18.408186      -500.9122
   4   1.0000     -18.381908      -500.1971
   5   1.0000     -18.381908      -500.1971
   6   1.0000      -2.449658       -66.6586
   7   1.0000      -1.560917       -42.4747
   8   1.0000      -1.481551       -40.3150
   9   1.0000      -1.481551       -40.3150
  10   1.0000      -0.823239       -22.4015
  11   1.0000      -0.297493        -8.0952
  12   1.0000      -0.293504        -7.9867
  13   1.0000      -0.293504        -7.9867
  14   0.0000      -0.102456        -2.7880
  15   0.0000      -0.065133        -1.7724
  16   0.0000      -0.065133        -1.7724
  17   0.0000      -0.056585        -1.5398
  18   0.0000      -0.056486        -1.5371

MULLIKEN ATOMIC CHARGES AND SPIN POPULATIONS
--------------------------------------------
   0 V :    0.492532    3.273667
   1 O :   -0.492532   -0.273667
Sum of atomic charges         :   -0.0000000

LOEWDIN ATOMIC CHARGES AND SPIN POPULATIONS
-------------------------------------------
   0 V :    0.560787    3.039338
   1 O :   -0.560787   -0.039338

  Mayer bond orders larger than 0.100000
B(  0-V ,  1-O ) :   2.3129

Dispersion correction           -0.000901231
FINAL SINGLE POINT ENERGY     -1019.309703437439

DIPOLE MOMENT
-------------
                                X             Y             Z
Electronic contribution:      0.00000       0.00000      -3.15174
Nuclear contribution   :      0.00000       0.00000       1.77684
                        -----------------------------------------
Total Dipole Moment    :      0.00000       0.00000      -1.37491
                        -----------------------------------------
Magnitude (a.u.)       :      1.37491
Magnitude (Debye)      :      3.49474

Rotational constants in cm-1:     0.000000     0.546523     0.546523
Rotational constants in MHz :     0.000000 16384.348098 16384.348098

                             ****ORCA TERMINATED NORMALLY****
TOTAL RUN TIME: 0 days 0 hours 1 minutes 24 seconds 279 msec
