                         Program Version 4.2.0 -  RELEASE  -
|  1> #
|  2> # 18_VS tpss/aug-cc-pvtz
|  3> #
|  4> ! tpss d3bj aug-cc-pvtz def2/j opt xyzfile
|  5>
|  6> *xyz 0 4
|  7> V 0.0 0.0 0.0
|  8> S 0.0 0.0 2.0
|  9> *
| 10>
| 11> %pal
| 12> nprocs 24
| 13> end
| 14>
| 15>
| 16>                          ****END OF INPUT****
 Total Charge           Charge          ....    0
 Multiplicity           Mult            ....    4
 Number of Electrons    NEL             ....   39
Dispersion correction           -0.002123171
FINAL SINGLE POINT ENERGY     -1342.275361843068
Dispersion correction            ... done
Dispersion correction           -0.002123136
FINAL SINGLE POINT ENERGY     -1342.275700084651
Dispersion correction            ... done
Dispersion correction           -0.002123162
FINAL SINGLE POINT ENERGY     -1342.276614503688
Dispersion correction            ... done
Dispersion correction           -0.002123198
FINAL SINGLE POINT ENERGY     -1342.276623268259
Dispersion correction            ... done
Dispersion correction           -0.002123203
FINAL SINGLE POINT ENERGY     -1342.276622974484
Dispersion correction            ... done
                    ***********************HURRAY********************

CARTESIAN COORDINATES (ANGSTROEM)
---------------------------------
  V      0.000000    0.000000   -0.027842
  S      0.000000    0.000000    2.027842

 Multiplicity           Mult            ....    4
 Number of Electrons    NEL             ....   39
 Basis Dimension        Dim             ....  143

ORBITAL ENERGIES
----------------
                 SPIN UP ORBITALS
  NO   OCC          E(Eh)            E(eV)
   0   1.0000    -196.104654     -5336.2789
   1   1.0000     -88.341842     -2403.9037
   2   1.0000     -21.879407      -595.3689
   3   1.0000     -18.401245      -500.7233
   4   1.0000     -18.392882      -500.4958
   5   1.0000     -18.392882      -500.4958
   6   1.0000      -7.698356      -209.4829
   7   1.0000      -5.675836      -154.4474
   8   1.0000      -5.675836      -154.4474
   9   1.0000      -5.674705      -154.4166
  10   1.0000      -2.520086       -68.5750
  11   1.0000      -1.588400       -43.2226
  12   1.0000      -1.574217       -42.8366
  13   1.0000      -1.574217       -42.8366
  14   1.0000      -0.571345       -15.5471
  15   1.0000      -0.252558        -6.8724
  16   1.0000      -0.223741        -6.0883
  17   1.0000      -0.223741        -6.0883
  18   1.0000      -0.175478        -4.7750
  19   1.0000      -0.159363        -4.3365
  20   1.0000      -0.159254        -4.3335
  21   0.0000      -0.123629        -3.3641
  22   0.0000      -0.123629        -3.3641
  23   0.0000      -0.102712        -2.7949
  24   0.0000      -0.029042        -0.7903
  25   0.0000      -0.029042        -0.7903

                 SPIN DOWN ORBITALS
  NO   OCC          E(Eh)            E(eV)
   0   1.0000    -196.104190     -5336.2663
   1   1.0000     -88.344252     -2403.9693
   2   1.0000     -21.848473      -594.5272
   3   1.0000     -18.383979      -500.2535
   4   1.0000     -18.364185      -499.7149
   5   1.0000     -18.364185      -499.7149
   6   1.0000      -7.700485      -209.5408
   7   1.0000      -5.679221      -154.5394
   8   1.0000      -5.679221      -154.5394
   9   1.0000      -5.677522      -154.4932
  10   1.0000      -2.427094       -66.0446
  11   1.0000      -1.519019       -41.3346
  12   1.0000      -1.465625       -39.8817
  13   1.0000      -1.465625       -39.8817
  14   1.0000      -0.585827       -15.9412
  15   1.0000      -0.241548        -6.5728
  16   1.0000      -0.223657        -6.0860
  17   1.0000      -0.223657        -6.0860
  18   0.0000      -0.103781        -2.8240
  19   0.0000      -0.077141        -2.0991
  20   0.0000      -0.077141        -2.0991
  21   0.0000      -0.065664        -1.7868
  22   0.0000      -0.049314        -1.3419

MULLIKEN ATOMIC CHARGES AND SPIN POPULATIONS
--------------------------------------------
   0 V :    0.131479    3.479769
   1 S :   -0.131479   -0.479769
Sum of atomic charges         :    0.0000000

LOEWDIN ATOMIC CHARGES AND SPIN POPULATIONS
-------------------------------------------
   0 V :    0.017950    3.203187
   1 S :   -0.017950   -0.203187

  Mayer bond orders larger than 0.100000
B(  0-V ,  1-S ) :   2.5291

Dispersion correction           -0.002123203
FINAL SINGLE POINT ENERGY     -1342.276622152082

DIPOLE MOMENT
-------------
                                X             Y             Z
Electronic contribution:     -0.00000       0.00000      -5.67145
Nuclear contribution   :      0.00000       0.00000       3.63475
                        -----------------------------------------
Total Dipole Moment    :     -0.00000       0.00000      -2.03671
                        -----------------------------------------
Magnitude (a.u.)       :      2.03671
Magnitude (Debye)      :      5.17690

Rotational constants in cm-1:     0.000000     0.202740     0.202740
Rotational constants in MHz :     0.000000  6078.002656  6078.002656

                             ****ORCA TERMINATED NORMALLY****
TOTAL RUN TIME: 0 days 0 hours 1 minutes 5 seconds 793 msec
