                         Program Version 4.2.0 -  RELEASE  -
|  1> #
|  2> # 19_CrH tpss/aug-cc-pvtz
|  3> #
|  4> ! tpss d3bj aug-cc-pvtz def2/j opt xyzfile
|  5>
|  6> *xyz 0 6
|  7> Cr 0.0 0.0 0.0
|  8> H 0.0 0.0 2.0
|  9> *
| 10>
| 11> %pal
| 12> nprocs 24
| 13> end
| 14>
| 15>
| 16>                          ****END OF INPUT****
 Total Charge           Charge          ....    0
 Multiplicity           Mult            ....    6
 Number of Electrons    NEL             ....   25
Dispersion correction           -0.001052543
FINAL SINGLE POINT ENERGY     -1045.064397669628
Dispersion correction            ... done
Dispersion correction           -0.000856775
FINAL SINGLE POINT ENERGY     -1045.071709972706
Dispersion correction            ... done
Dispersion correction           -0.000669896
FINAL SINGLE POINT ENERGY     -1045.077397889566
Dispersion correction            ... done
FINAL SINGLE POINT ENERGY     -1045.077748480604
Dispersion correction            ... done
Dispersion correction           -0.000622768
FINAL SINGLE POINT ENERGY     -1045.077890802188
Dispersion correction            ... done
Dispersion correction           -0.000620469
FINAL SINGLE POINT ENERGY     -1045.077893452821
Dispersion correction            ... done
                    ***********************HURRAY********************

CARTESIAN COORDINATES (ANGSTROEM)
---------------------------------
  Cr     0.000000    0.000000    0.170365
  H      0.000000    0.000000    1.829635

 Multiplicity           Mult            ....    6
 Number of Electrons    NEL             ....   25
 Basis Dimension        Dim             ....  116

ORBITAL ENERGIES
----------------
                 SPIN UP ORBITALS
  NO   OCC          E(Eh)            E(eV)
   0   1.0000    -214.897228     -5847.6509
   1   1.0000     -24.297060      -661.1566
   2   1.0000     -20.599362      -560.5371
   3   1.0000     -20.597931      -560.4982
   4   1.0000     -20.597931      -560.4982
   5   1.0000      -2.762240       -75.1644
   6   1.0000      -1.738294       -47.3014
   7   1.0000      -1.735290       -47.2197
   8   1.0000      -1.735290       -47.2197
   9   1.0000      -0.246020        -6.6945
  10   1.0000      -0.168011        -4.5718
  11   1.0000      -0.168011        -4.5718
  12   1.0000      -0.162466        -4.4209
  13   1.0000      -0.161287        -4.3889
  14   1.0000      -0.161231        -4.3873
  15   0.0000      -0.092086        -2.5058
  16   0.0000      -0.043041        -1.1712
  17   0.0000      -0.043041        -1.1712
  18   0.0000       0.001235         0.0336
  19   0.0000       0.014599         0.3973

                 SPIN DOWN ORBITALS
  NO   OCC          E(Eh)            E(eV)
   0   1.0000    -214.896436     -5847.6293
   1   1.0000     -24.244522      -659.7270
   2   1.0000     -20.560133      -559.4697
   3   1.0000     -20.553823      -559.2980
   4   1.0000     -20.553823      -559.2980
   5   1.0000      -2.603862       -70.8547
   6   1.0000      -1.585044       -43.1313
   7   1.0000      -1.571813       -42.7712
   8   1.0000      -1.571813       -42.7712
   9   1.0000      -0.236549        -6.4368
  10   0.0000      -0.081446        -2.2163
  11   0.0000      -0.029654        -0.8069
  12   0.0000      -0.025495        -0.6938
  13   0.0000      -0.025495        -0.6938
  14   0.0000      -0.018246        -0.4965

MULLIKEN ATOMIC CHARGES AND SPIN POPULATIONS
--------------------------------------------
   0 Cr:    0.256829    5.145835
   1 H :   -0.256829   -0.145835
Sum of atomic charges         :    0.0000000

LOEWDIN ATOMIC CHARGES AND SPIN POPULATIONS
-------------------------------------------
   0 Cr:    0.607902    4.884720
   1 H :   -0.607902    0.115280

  Mayer bond orders larger than 0.100000
B(  0-Cr,  1-H ) :   0.9949

Dispersion correction           -0.000620328
FINAL SINGLE POINT ENERGY     -1045.077893509038

DIPOLE MOMENT
-------------
                                X             Y             Z
Electronic contribution:     -0.00000      -0.00000      -2.77792
Nuclear contribution   :      0.00000       0.00000       1.64492
                        -----------------------------------------
Total Dipole Moment    :     -0.00000      -0.00000      -1.13300
                        -----------------------------------------
Magnitude (a.u.)       :      1.13300
Magnitude (Debye)      :      2.87986

Rotational constants in cm-1:     0.000000     6.192127     6.192127
Rotational constants in MHz :     0.000000 185635.310837 185635.310837

                             ****ORCA TERMINATED NORMALLY****
TOTAL RUN TIME: 0 days 0 hours 1 minutes 3 seconds 909 msec
