                         Program Version 4.2.0 -  RELEASE  -
|  1> #
|  2> # 20_CrF tpss/aug-cc-pvtz
|  3> #
|  4> ! tpss d3bj aug-cc-pvtz def2/j opt xyzfile
|  5>
|  6> *xyz 0 6
|  7> Cr 0.0 0.0 0.0
|  8> F 0.0 0.0 2.0
|  9> *
| 10>
| 11> %pal
| 12> nprocs 24
| 13> end
| 14>
| 15>
| 16>                          ****END OF INPUT****
 Total Charge           Charge          ....    0
 Multiplicity           Mult            ....    6
 Number of Electrons    NEL             ....   33
Dispersion correction           -0.000646312
FINAL SINGLE POINT ENERGY     -1144.431347449035
Dispersion correction            ... done
Dispersion correction           -0.000631359
FINAL SINGLE POINT ENERGY     -1144.435583831403
Dispersion correction            ... done
Dispersion correction           -0.000612664
FINAL SINGLE POINT ENERGY     -1144.443654836665
Dispersion correction            ... done
Dispersion correction           -0.000612253
FINAL SINGLE POINT ENERGY     -1144.443661996693
Dispersion correction            ... done
Dispersion correction           -0.000612400
FINAL SINGLE POINT ENERGY     -1144.443670485772
Dispersion correction            ... done
                    ***********************HURRAY********************

CARTESIAN COORDINATES (ANGSTROEM)
---------------------------------
  Cr     0.000000    0.000000    0.106597
  F      0.000000    0.000000    1.893403

 Multiplicity           Mult            ....    6
 Number of Electrons    NEL             ....   33
 Basis Dimension        Dim             ....  139

ORBITAL ENERGIES
----------------
                 SPIN UP ORBITALS
  NO   OCC          E(Eh)            E(eV)
   0   1.0000    -214.929451     -5848.5277
   1   1.0000     -24.340388      -662.3356
   2   1.0000     -24.333433      -662.1464
   3   1.0000     -20.636521      -561.5483
   4   1.0000     -20.633895      -561.4768
   5   1.0000     -20.633895      -561.4768
   6   1.0000      -2.795929       -76.0811
   7   1.0000      -1.775291       -48.3081
   8   1.0000      -1.767001       -48.0825
   9   1.0000      -1.767001       -48.0825
  10   1.0000      -1.013756       -27.5857
  11   1.0000      -0.345110        -9.3909
  12   1.0000      -0.320400        -8.7185
  13   1.0000      -0.320400        -8.7185
  14   1.0000      -0.187844        -5.1115
  15   1.0000      -0.187817        -5.1108
  16   1.0000      -0.179174        -4.8756
  17   1.0000      -0.179174        -4.8756
  18   1.0000      -0.178869        -4.8673
  19   0.0000      -0.114934        -3.1275
  20   0.0000      -0.037887        -1.0310
  21   0.0000      -0.037887        -1.0310
  22   0.0000      -0.000240        -0.0065
  23   0.0000       0.004148         0.1129

                 SPIN DOWN ORBITALS
  NO   OCC          E(Eh)            E(eV)
   0   1.0000    -214.928358     -5848.4980
   1   1.0000     -24.340127      -662.3285
   2   1.0000     -24.281968      -660.7459
   3   1.0000     -20.599751      -560.5477
   4   1.0000     -20.589689      -560.2739
   5   1.0000     -20.589689      -560.2739
   6   1.0000      -2.642565       -71.9079
   7   1.0000      -1.633686       -44.4548
   8   1.0000      -1.606028       -43.7023
   9   1.0000      -1.606028       -43.7023
  10   1.0000      -1.011886       -27.5348
  11   1.0000      -0.339679        -9.2431
  12   1.0000      -0.307483        -8.3670
  13   1.0000      -0.307483        -8.3670
  14   0.0000      -0.090809        -2.4710
  15   0.0000      -0.042564        -1.1582
  16   0.0000      -0.042369        -1.1529
  17   0.0000      -0.040878        -1.1123
  18   0.0000      -0.037659        -1.0248

MULLIKEN ATOMIC CHARGES AND SPIN POPULATIONS
--------------------------------------------
   0 Cr:    0.548587    5.024832
   1 F :   -0.548587   -0.024832
Sum of atomic charges         :    0.0000000

LOEWDIN ATOMIC CHARGES AND SPIN POPULATIONS
-------------------------------------------
   0 Cr:    0.365036    4.862875
   1 F :   -0.365036    0.137125

  Mayer bond orders larger than 0.100000
B(  0-Cr,  1-F ) :   0.7465

Dispersion correction           -0.000612397
FINAL SINGLE POINT ENERGY     -1144.443670639627

DIPOLE MOMENT
-------------
                                X             Y             Z
Electronic contribution:      0.00000       0.00000      -2.01940
Nuclear contribution   :      0.00000       0.00000       0.57299
                        -----------------------------------------
Total Dipole Moment    :      0.00000       0.00000      -1.44641
                        -----------------------------------------
Magnitude (a.u.)       :      1.44641
Magnitude (Debye)      :      3.67648

Rotational constants in cm-1:     0.000000     0.379469     0.379469
Rotational constants in MHz :     0.000000 11376.206933 11376.206933

                             ****ORCA TERMINATED NORMALLY****
TOTAL RUN TIME: 0 days 0 hours 0 minutes 57 seconds 800 msec
