                         Program Version 4.2.0 -  RELEASE  -
|  1> #
|  2> # 21_CrCl tpss/aug-cc-pvtz
|  3> #
|  4> ! tpss d3bj aug-cc-pvtz def2/j opt xyzfile
|  5>
|  6> *xyz 0 6
|  7> Cr 0.0 0.0 0.0
|  8> Cl 0.0 0.0 2.0
|  9> *
| 10>
| 11> %pal
| 12> nprocs 24
| 13> end
| 14>
| 15>
| 16>                          ****END OF INPUT****
 Total Charge           Charge          ....    0
 Multiplicity           Mult            ....    6
 Number of Electrons    NEL             ....   41
Dispersion correction           -0.001735104
FINAL SINGLE POINT ENERGY     -1504.798956146922
Dispersion correction            ... done
Dispersion correction           -0.001735256
FINAL SINGLE POINT ENERGY     -1504.802100663115
Dispersion correction            ... done
Dispersion correction           -0.001739577
FINAL SINGLE POINT ENERGY     -1504.809730967212
Dispersion correction            ... done
FINAL SINGLE POINT ENERGY     -1504.810479907153
Dispersion correction            ... done
Dispersion correction           -0.001746137
FINAL SINGLE POINT ENERGY     -1504.810544030231
Dispersion correction            ... done
Dispersion correction           -0.001746514
FINAL SINGLE POINT ENERGY     -1504.810543340123
Dispersion correction            ... done
                    ***********************HURRAY********************

CARTESIAN COORDINATES (ANGSTROEM)
---------------------------------
  Cr     0.000000    0.000000   -0.098853
  Cl     0.000000    0.000000    2.098853

 Multiplicity           Mult            ....    6
 Number of Electrons    NEL             ....   41
 Basis Dimension        Dim             ....  143

ORBITAL ENERGIES
----------------
                 SPIN UP ORBITALS
  NO   OCC          E(Eh)            E(eV)
   0   1.0000    -214.924902     -5848.4039
   1   1.0000    -100.970551     -2747.5484
   2   1.0000     -24.323627      -661.8796
   3   1.0000     -20.625520      -561.2489
   4   1.0000     -20.624776      -561.2287
   5   1.0000     -20.624776      -561.2287
   6   1.0000      -9.197953      -250.2890
   7   1.0000      -6.974197      -189.7775
   8   1.0000      -6.971691      -189.7094
   9   1.0000      -6.971691      -189.7094
  10   1.0000      -2.790259       -75.9268
  11   1.0000      -1.768941       -48.1353
  12   1.0000      -1.762202       -47.9520
  13   1.0000      -1.762202       -47.9520
  14   1.0000      -0.701162       -19.0796
  15   1.0000      -0.301969        -8.2170
  16   1.0000      -0.268680        -7.3112
  17   1.0000      -0.268680        -7.3112
  18   1.0000      -0.186693        -5.0802
  19   1.0000      -0.186237        -5.0678
  20   1.0000      -0.183563        -4.9950
  21   1.0000      -0.180799        -4.9198
  22   1.0000      -0.180799        -4.9198
  23   0.0000      -0.125751        -3.4219
  24   0.0000      -0.040819        -1.1107
  25   0.0000      -0.040819        -1.1107
  26   0.0000      -0.001964        -0.0534
  27   0.0000       0.002731         0.0743

                 SPIN DOWN ORBITALS
  NO   OCC          E(Eh)            E(eV)
   0   1.0000    -214.924051     -5848.3808
   1   1.0000    -100.970855     -2747.5566
   2   1.0000     -24.271079      -660.4496
   3   1.0000     -20.586713      -560.1929
   4   1.0000     -20.580363      -560.0201
   5   1.0000     -20.580363      -560.0201
   6   1.0000      -9.198225      -250.2964
   7   1.0000      -6.975682      -189.8179
   8   1.0000      -6.971541      -189.7053
   9   1.0000      -6.971541      -189.7053
  10   1.0000      -2.632415       -71.6317
  11   1.0000      -1.616783       -43.9949
  12   1.0000      -1.599218       -43.5169
  13   1.0000      -1.599218       -43.5169
  14   1.0000      -0.701759       -19.0958
  15   1.0000      -0.293387        -7.9835
  16   1.0000      -0.257921        -7.0184
  17   1.0000      -0.257921        -7.0184
  18   0.0000      -0.096985        -2.6391
  19   0.0000      -0.050681        -1.3791
  20   0.0000      -0.045131        -1.2281
  21   0.0000      -0.045131        -1.2281
  22   0.0000      -0.041740        -1.1358

MULLIKEN ATOMIC CHARGES AND SPIN POPULATIONS
--------------------------------------------
   0 Cr:    0.347863    5.063141
   1 Cl:   -0.347863   -0.063141
Sum of atomic charges         :   -0.0000000

LOEWDIN ATOMIC CHARGES AND SPIN POPULATIONS
-------------------------------------------
   0 Cr:    0.004223    4.880632
   1 Cl:   -0.004223    0.119368

  Mayer bond orders larger than 0.100000
B(  0-Cr,  1-Cl) :   1.1025

Dispersion correction           -0.001746532
FINAL SINGLE POINT ENERGY     -1504.810543289193

DIPOLE MOMENT
-------------
                                X             Y             Z
Electronic contribution:     -0.00000       0.00000      -3.44466
Nuclear contribution   :      0.00000       0.00000       1.57322
                        -----------------------------------------
Total Dipole Moment    :     -0.00000       0.00000      -1.87145
                        -----------------------------------------
Magnitude (a.u.)       :      1.87145
Magnitude (Debye)      :      4.75684

Rotational constants in cm-1:     0.000000     0.165568     0.165568
Rotational constants in MHz :     0.000000  4963.604658  4963.604658

                             ****ORCA TERMINATED NORMALLY****
TOTAL RUN TIME: 0 days 0 hours 1 minutes 11 seconds 358 msec
