                         Program Version 4.2.0 -  RELEASE  -
|  1> #
|  2> # 22_CrBr tpss/aug-cc-pvtz
|  3> #
|  4> ! tpss d3bj aug-cc-pvtz def2/j opt xyzfile
|  5>
|  6> *xyz 0 6
|  7> Cr 0.0 0.0 0.0
|  8> Br 0.0 0.0 2.0
|  9> *
| 10>
| 11> %pal
| 12> nprocs 24
| 13> end
| 14>
| 15>
| 16>                          ****END OF INPUT****
 Total Charge           Charge          ....    0
 Multiplicity           Mult            ....    6
 Number of Electrons    NEL             ....   59
Dispersion correction           -0.001957744
FINAL SINGLE POINT ENERGY     -3618.644949808586
Dispersion correction            ... done
Dispersion correction           -0.001957228
FINAL SINGLE POINT ENERGY     -3618.653557146004
Dispersion correction            ... done
Dispersion correction           -0.001956545
FINAL SINGLE POINT ENERGY     -3618.676511608551
Dispersion correction            ... done
FINAL SINGLE POINT ENERGY     -3618.680951020050
FINAL SINGLE POINT ENERGY     -3618.681950285628
Dispersion correction            ... done
Dispersion correction           -0.001966487
FINAL SINGLE POINT ENERGY     -3618.682024582149
Dispersion correction            ... done
Dispersion correction           -0.001966882
FINAL SINGLE POINT ENERGY     -3618.682025738502
Dispersion correction            ... done
                    ***********************HURRAY********************

CARTESIAN COORDINATES (ANGSTROEM)
---------------------------------
  Cr     0.000000    0.000000   -0.171989
  Br     0.000000    0.000000    2.171989

 Multiplicity           Mult            ....    6
 Number of Electrons    NEL             ....   59
 Basis Dimension        Dim             ....  152

ORBITAL ENERGIES
----------------
                 SPIN UP ORBITALS
  NO   OCC          E(Eh)            E(eV)
   0   1.0000    -481.697248    -13107.6485
   1   1.0000    -214.923116     -5848.3553
   2   1.0000     -61.910292     -1684.6647
   3   1.0000     -55.743524     -1516.8584
   4   1.0000     -55.742637     -1516.8343
   5   1.0000     -55.742637     -1516.8343
   6   1.0000     -24.320432      -661.7926
   7   1.0000     -20.622103      -561.1559
   8   1.0000     -20.621704      -561.1451
   9   1.0000     -20.621704      -561.1451
  10   1.0000      -8.436803      -229.5771
  11   1.0000      -6.275809      -170.7735
  12   1.0000      -6.272314      -170.6783
  13   1.0000      -6.272314      -170.6783
  14   1.0000      -2.788321       -75.8741
  15   1.0000      -2.444829       -66.5272
  16   1.0000      -2.443598       -66.4937
  17   1.0000      -2.443598       -66.4937
  18   1.0000      -2.441118       -66.4262
  19   1.0000      -2.440888       -66.4199
  20   1.0000      -1.766951       -48.0812
  21   1.0000      -1.760505       -47.9058
  22   1.0000      -1.760505       -47.9058
  23   1.0000      -0.665389       -18.1062
  24   1.0000      -0.287100        -7.8124
  25   1.0000      -0.252312        -6.8658
  26   1.0000      -0.252312        -6.8658
  27   1.0000      -0.185793        -5.0557
  28   1.0000      -0.185511        -5.0480
  29   1.0000      -0.184110        -5.0099
  30   1.0000      -0.179947        -4.8966
  31   1.0000      -0.179947        -4.8966
  32   0.0000      -0.127455        -3.4682
  33   0.0000      -0.042143        -1.1468
  34   0.0000      -0.042143        -1.1468
  35   0.0000      -0.002760        -0.0751
  36   0.0000       0.001196         0.0325

                 SPIN DOWN ORBITALS
  NO   OCC          E(Eh)            E(eV)
   0   1.0000    -481.697407    -13107.6528
   1   1.0000    -214.922318     -5848.3336
   2   1.0000     -61.910322     -1684.6655
   3   1.0000     -55.743897     -1516.8686
   4   1.0000     -55.742630     -1516.8341
   5   1.0000     -55.742630     -1516.8341
   6   1.0000     -24.267560      -660.3539
   7   1.0000     -20.582674      -560.0830
   8   1.0000     -20.577228      -559.9349
   9   1.0000     -20.577228      -559.9349
  10   1.0000      -8.436996      -229.5823
  11   1.0000      -6.276480      -170.7917
  12   1.0000      -6.272307      -170.6781
  13   1.0000      -6.272307      -170.6781
  14   1.0000      -2.629227       -71.5449
  15   1.0000      -2.445489       -66.5451
  16   1.0000      -2.444066       -66.5064
  17   1.0000      -2.444066       -66.5064
  18   1.0000      -2.440992       -66.4228
  19   1.0000      -2.440761       -66.4165
  20   1.0000      -1.612198       -43.8701
  21   1.0000      -1.596852       -43.4526
  22   1.0000      -1.596852       -43.4526
  23   1.0000      -0.666579       -18.1385
  24   1.0000      -0.277508        -7.5514
  25   1.0000      -0.241697        -6.5769
  26   1.0000      -0.241697        -6.5769
  27   0.0000      -0.097277        -2.6470
  28   0.0000      -0.051461        -1.4003
  29   0.0000      -0.045545        -1.2393
  30   0.0000      -0.045545        -1.2393
  31   0.0000      -0.040831        -1.1111

MULLIKEN ATOMIC CHARGES AND SPIN POPULATIONS
--------------------------------------------
   0 Cr:    0.225397    5.120168
   1 Br:   -0.225397   -0.120168
Sum of atomic charges         :   -0.0000000

LOEWDIN ATOMIC CHARGES AND SPIN POPULATIONS
-------------------------------------------
   0 Cr:   -0.087930    4.900808
   1 Br:    0.087930    0.099192

  Mayer bond orders larger than 0.100000
B(  0-Cr,  1-Br) :   1.1925

Dispersion correction           -0.001966899
FINAL SINGLE POINT ENERGY     -3618.682025780534

DIPOLE MOMENT
-------------
                                X             Y             Z
Electronic contribution:     -0.00000      -0.00000       1.35315
Nuclear contribution   :      0.00000       0.00000      -3.27761
                        -----------------------------------------
Total Dipole Moment    :     -0.00000      -0.00000      -1.92446
                        -----------------------------------------
Magnitude (a.u.)       :      1.92446
Magnitude (Debye)      :      4.89158

Rotational constants in cm-1:     0.000000     0.097406     0.097406
Rotational constants in MHz :     0.000000  2920.152240  2920.152240

                             ****ORCA TERMINATED NORMALLY****
TOTAL RUN TIME: 0 days 0 hours 1 minutes 35 seconds 790 msec
