                         Program Version 4.2.0 -  RELEASE  -
|  1> #
|  2> # 23_CrO tpss/aug-cc-pvtz
|  3> #
|  4> ! tpss d3bj aug-cc-pvtz def2/j opt xyzfile
|  5>
|  6> *xyz 0 5
|  7> Cr 0.0 0.0 0.0
|  8> O 0.0 0.0 2.0
|  9> *
| 10>
| 11> %pal
| 12> nprocs 24
| 13> end
| 14>
| 15>
| 16>                          ****END OF INPUT****
 Total Charge           Charge          ....    0
 Multiplicity           Mult            ....    5
 Number of Electrons    NEL             ....   32
Dispersion correction           -0.000907762
FINAL SINGLE POINT ENERGY     -1119.725686772321
Dispersion correction            ... done
Dispersion correction           -0.000874287
FINAL SINGLE POINT ENERGY     -1119.735514694822
Dispersion correction            ... done
Dispersion correction           -0.000847071
FINAL SINGLE POINT ENERGY     -1119.758265844891
Dispersion correction            ... done
FINAL SINGLE POINT ENERGY     -1119.770667504760
Dispersion correction            ... done
Dispersion correction           -0.000843462
FINAL SINGLE POINT ENERGY     -1119.770666475035
Dispersion correction            ... done
Dispersion correction           -0.000843464
FINAL SINGLE POINT ENERGY     -1119.770667441711
Dispersion correction            ... done
                    ***********************HURRAY********************

CARTESIAN COORDINATES (ANGSTROEM)
---------------------------------
  Cr     0.000000    0.000000    0.192649
  O      0.000000    0.000000    1.807351

 Multiplicity           Mult            ....    5
 Number of Electrons    NEL             ....   32
 Basis Dimension        Dim             ....  139

ORBITAL ENERGIES
----------------
                 SPIN UP ORBITALS
  NO   OCC          E(Eh)            E(eV)
   0   1.0000    -214.971764     -5849.6791
   1   1.0000     -24.383665      -663.5133
   2   1.0000     -20.688489      -562.9624
   3   1.0000     -20.687994      -562.9489
   4   1.0000     -20.680079      -562.7336
   5   1.0000     -18.873182      -513.5654
   6   1.0000      -2.827690       -76.9453
   7   1.0000      -1.806521       -49.1579
   8   1.0000      -1.803492       -49.0755
   9   1.0000      -1.793426       -48.8016
  10   1.0000      -0.812983       -22.1224
  11   1.0000      -0.312266        -8.4972
  12   1.0000      -0.303579        -8.2608
  13   1.0000      -0.294094        -8.0027
  14   1.0000      -0.215832        -5.8731
  15   1.0000      -0.215159        -5.8548
  16   1.0000      -0.186595        -5.0775
  17   1.0000      -0.164155        -4.4669
  18   0.0000      -0.148837        -4.0501
  19   0.0000      -0.100180        -2.7260
  20   0.0000      -0.031411        -0.8547
  21   0.0000      -0.029363        -0.7990
  22   0.0000       0.001000         0.0272

                 SPIN DOWN ORBITALS
  NO   OCC          E(Eh)            E(eV)
   0   1.0000    -214.970569     -5849.6466
   1   1.0000     -24.341363      -662.3621
   2   1.0000     -20.661726      -562.2342
   3   1.0000     -20.652861      -561.9929
   4   1.0000     -20.638854      -561.6118
   5   1.0000     -18.879708      -513.7430
   6   1.0000      -2.703377       -73.5626
   7   1.0000      -1.708135       -46.4807
   8   1.0000      -1.675302       -45.5873
   9   1.0000      -1.644375       -44.7457
  10   1.0000      -0.824437       -22.4341
  11   1.0000      -0.299076        -8.1383
  12   1.0000      -0.295655        -8.0452
  13   1.0000      -0.270530        -7.3615
  14   0.0000      -0.109354        -2.9757
  15   0.0000      -0.087191        -2.3726
  16   0.0000      -0.080850        -2.2000
  17   0.0000      -0.080730        -2.1968
  18   0.0000      -0.059829        -1.6280

MULLIKEN ATOMIC CHARGES AND SPIN POPULATIONS
--------------------------------------------
   0 Cr:    0.554850    4.207866
   1 O :   -0.554850   -0.207866
Sum of atomic charges         :   -0.0000000

LOEWDIN ATOMIC CHARGES AND SPIN POPULATIONS
-------------------------------------------
   0 Cr:    0.550789    4.012130
   1 O :   -0.550789   -0.012130

  Mayer bond orders larger than 0.100000
B(  0-Cr,  1-O ) :   2.1256

Dispersion correction           -0.000843464
FINAL SINGLE POINT ENERGY     -1119.770667658057

DIPOLE MOMENT
-------------
                                X             Y             Z
Electronic contribution:      0.00000       0.00000      -2.90419
Nuclear contribution   :      0.00000       0.00000       1.43702
                        -----------------------------------------
Total Dipole Moment    :      0.00000       0.00000      -1.46717
                        -----------------------------------------
Magnitude (a.u.)       :      1.46717
Magnitude (Debye)      :      3.72924

Rotational constants in cm-1:     0.000000     0.528468     0.528468
Rotational constants in MHz :     0.000000 15843.074100 15843.074100

                             ****ORCA TERMINATED NORMALLY****
TOTAL RUN TIME: 0 days 0 hours 1 minutes 45 seconds 5 msec
