                         Program Version 4.2.0 -  RELEASE  -
|  1> #
|  2> # 24_CrS tpss/aug-cc-pvtz
|  3> #
|  4> ! tpss d3bj aug-cc-pvtz def2/j opt xyzfile
|  5>
|  6> *xyz 0 5
|  7> Cr 0.0 0.0 0.0
|  8> S 0.0 0.0 2.0
|  9> *
| 10>
| 11> %pal
| 12> nprocs 24
| 13> end
| 14>
| 15>
| 16>                          ****END OF INPUT****
 Total Charge           Charge          ....    0
 Multiplicity           Mult            ....    5
 Number of Electrons    NEL             ....   40
Dispersion correction           -0.001989445
FINAL SINGLE POINT ENERGY     -1442.758058754297
Dispersion correction            ... done
Dispersion correction           -0.001989447
FINAL SINGLE POINT ENERGY     -1442.758520891104
Dispersion correction            ... done
Dispersion correction           -0.001990045
FINAL SINGLE POINT ENERGY     -1442.760129147429
Dispersion correction            ... done
Dispersion correction           -0.001990323
FINAL SINGLE POINT ENERGY     -1442.760180214177
Dispersion correction            ... done
Dispersion correction           -0.001990390
FINAL SINGLE POINT ENERGY     -1442.760182160627
Dispersion correction            ... done
                    ***********************HURRAY********************

CARTESIAN COORDINATES (ANGSTROEM)
---------------------------------
  Cr     0.000000    0.000000   -0.040641
  S      0.000000    0.000000    2.040641

 Multiplicity           Mult            ....    5
 Number of Electrons    NEL             ....   40
 Basis Dimension        Dim             ....  143

ORBITAL ENERGIES
----------------
                 SPIN UP ORBITALS
  NO   OCC          E(Eh)            E(eV)
   0   1.0000    -214.953385     -5849.1790
   1   1.0000     -88.349385     -2404.1090
   2   1.0000     -24.357858      -662.8110
   3   1.0000     -20.661958      -562.2404
   4   1.0000     -20.660793      -562.2088
   5   1.0000     -20.655517      -562.0652
   6   1.0000      -7.704445      -209.6486
   7   1.0000      -5.683530      -154.6567
   8   1.0000      -5.681319      -154.5966
   9   1.0000      -5.679844      -154.5564
  10   1.0000      -2.813276       -76.5531
  11   1.0000      -1.789876       -48.7050
  12   1.0000      -1.789287       -48.6890
  13   1.0000      -1.780352       -48.4458
  14   1.0000      -0.574077       -15.6214
  15   1.0000      -0.265268        -7.2183
  16   1.0000      -0.244698        -6.6586
  17   1.0000      -0.238903        -6.5009
  18   1.0000      -0.207878        -5.6566
  19   1.0000      -0.205865        -5.6019
  20   1.0000      -0.193565        -5.2672
  21   1.0000      -0.165750        -4.5103
  22   0.0000      -0.155258        -4.2248
  23   0.0000      -0.116814        -3.1787
  24   0.0000      -0.035603        -0.9688
  25   0.0000      -0.033622        -0.9149
  26   0.0000      -0.000466        -0.0127

                 SPIN DOWN ORBITALS
  NO   OCC          E(Eh)            E(eV)
   0   1.0000    -214.952535     -5849.1558
   1   1.0000     -88.352191     -2404.1854
   2   1.0000     -24.310074      -661.5108
   3   1.0000     -20.627182      -561.2941
   4   1.0000     -20.622723      -561.1728
   5   1.0000     -20.612284      -560.8888
   6   1.0000      -7.706992      -209.7179
   7   1.0000      -5.690245      -154.8394
   8   1.0000      -5.684892      -154.6938
   9   1.0000      -5.680917      -154.5856
  10   1.0000      -2.670731       -72.6743
  11   1.0000      -1.659790       -45.1652
  12   1.0000      -1.645632       -44.7799
  13   1.0000      -1.622358       -44.1466
  14   1.0000      -0.592987       -16.1360
  15   1.0000      -0.249516        -6.7897
  16   1.0000      -0.237605        -6.4656
  17   1.0000      -0.213657        -5.8139
  18   0.0000      -0.107766        -2.9325
  19   0.0000      -0.084824        -2.3082
  20   0.0000      -0.069247        -1.8843
  21   0.0000      -0.065865        -1.7923
  22   0.0000      -0.065011        -1.7691

MULLIKEN ATOMIC CHARGES AND SPIN POPULATIONS
--------------------------------------------
   0 Cr:    0.254188    4.554540
   1 S :   -0.254188   -0.554540
Sum of atomic charges         :   -0.0000000

LOEWDIN ATOMIC CHARGES AND SPIN POPULATIONS
-------------------------------------------
   0 Cr:    0.031669    4.294350
   1 S :   -0.031669   -0.294350

  Mayer bond orders larger than 0.100000
B(  0-Cr,  1-S ) :   2.1842

Dispersion correction           -0.001990392
FINAL SINGLE POINT ENERGY     -1442.760181813956

DIPOLE MOMENT
-------------
                                X             Y             Z
Electronic contribution:     -0.00000      -0.00000      -4.86098
Nuclear contribution   :      0.00000       0.00000       2.92710
                        -----------------------------------------
Total Dipole Moment    :     -0.00000      -0.00000      -1.93388
                        -----------------------------------------
Magnitude (a.u.)       :      1.93388
Magnitude (Debye)      :      4.91553

Rotational constants in cm-1:     0.000000     0.196226     0.196226
Rotational constants in MHz :     0.000000  5882.717555  5882.717555

                             ****ORCA TERMINATED NORMALLY****
TOTAL RUN TIME: 0 days 0 hours 1 minutes 7 seconds 20 msec
