                         Program Version 4.2.0 -  RELEASE  -
|  1> #
|  2> # 25_MnH tpss/aug-cc-pvtz
|  3> #
|  4> ! tpss d3bj aug-cc-pvtz def2/j opt xyzfile
|  5>
|  6> *xyz 0 7
|  7> Mn 0.0 0.0 0.0
|  8> H 0.0 0.0 2.0
|  9> *
| 10>
| 11> %pal
| 12> nprocs 24
| 13> end
| 14>
| 15>
| 16>                          ****END OF INPUT****
 Total Charge           Charge          ....    0
 Multiplicity           Mult            ....    7
 Number of Electrons    NEL             ....   26
Dispersion correction           -0.001153738
FINAL SINGLE POINT ENERGY     -1151.591218790747
Dispersion correction            ... done
Dispersion correction           -0.001019032
FINAL SINGLE POINT ENERGY     -1151.596238685598
Dispersion correction            ... done
Dispersion correction           -0.000699116
FINAL SINGLE POINT ENERGY     -1151.599776600269
Dispersion correction            ... done
Dispersion correction           -0.000670815
FINAL SINGLE POINT ENERGY     -1151.599784158875
Dispersion correction            ... done
Dispersion correction           -0.000678462
FINAL SINGLE POINT ENERGY     -1151.599787952199
Dispersion correction            ... done
                    ***********************HURRAY********************

CARTESIAN COORDINATES (ANGSTROEM)
---------------------------------
  Mn     0.000000    0.000000    0.139235
  H      0.000000    0.000000    1.860765

 Multiplicity           Mult            ....    7
 Number of Electrons    NEL             ....   26
 Basis Dimension        Dim             ....  116

ORBITAL ENERGIES
----------------
                 SPIN UP ORBITALS
  NO   OCC          E(Eh)            E(eV)
   0   1.0000    -234.723008     -6387.1378
   1   1.0000     -27.021929      -735.3041
   2   1.0000     -23.106833      -628.7689
   3   1.0000     -23.106833      -628.7689
   4   1.0000     -23.103468      -628.6773
   5   1.0000      -3.181370       -86.5695
   6   1.0000      -2.067990       -56.2729
   7   1.0000      -2.067990       -56.2729
   8   1.0000      -2.054702       -55.9113
   9   1.0000      -0.322909        -8.7868
  10   1.0000      -0.311591        -8.4788
  11   1.0000      -0.311583        -8.4786
  12   1.0000      -0.303358        -8.2548
  13   1.0000      -0.303358        -8.2548
  14   1.0000      -0.254375        -6.9219
  15   1.0000      -0.147664        -4.0181
  16   0.0000      -0.064774        -1.7626
  17   0.0000      -0.064774        -1.7626
  18   0.0000      -0.003330        -0.0906
  19   0.0000       0.008970         0.2441
  20   0.0000       0.021404         0.5824

                 SPIN DOWN ORBITALS
  NO   OCC          E(Eh)            E(eV)
   0   1.0000    -234.721147     -6387.0871
   1   1.0000     -26.951659      -733.3919
   2   1.0000     -23.049089      -627.1976
   3   1.0000     -23.049089      -627.1976
   4   1.0000     -23.047743      -627.1610
   5   1.0000      -2.991023       -81.3899
   6   1.0000      -1.876389       -51.0591
   7   1.0000      -1.876389       -51.0591
   8   1.0000      -1.865702       -50.7683
   9   1.0000      -0.256610        -6.9827
  10   0.0000      -0.138185        -3.7602
  11   0.0000      -0.137268        -3.7352
  12   0.0000      -0.137228        -3.7342
  13   0.0000      -0.126934        -3.4540
  14   0.0000      -0.126934        -3.4540

MULLIKEN ATOMIC CHARGES AND SPIN POPULATIONS
--------------------------------------------
   0 Mn:    0.212788    5.897829
   1 H :   -0.212788    0.102171
Sum of atomic charges         :   -0.0000000

LOEWDIN ATOMIC CHARGES AND SPIN POPULATIONS
-------------------------------------------
   0 Mn:    0.566738    5.763681
   1 H :   -0.566738    0.236319

  Mayer bond orders larger than 0.100000
B(  0-Mn,  1-H ) :   0.9580

Dispersion correction           -0.000678355
FINAL SINGLE POINT ENERGY     -1151.599787873186

DIPOLE MOMENT
-------------
                                X             Y             Z
Electronic contribution:      0.00000       0.00000      -2.08541
Nuclear contribution   :      0.00000       0.00000       1.72930
                        -----------------------------------------
Total Dipole Moment    :      0.00000       0.00000      -0.35611
                        -----------------------------------------
Magnitude (a.u.)       :      0.35611
Magnitude (Debye)      :      0.90516

Rotational constants in cm-1:     0.000000     5.746491     5.746491
Rotational constants in MHz :     0.000000 172275.461427 172275.461427

                             ****ORCA TERMINATED NORMALLY****
TOTAL RUN TIME: 0 days 0 hours 0 minutes 52 seconds 979 msec
