                         Program Version 4.2.0 -  RELEASE  -
|  1> #
|  2> # 26_MnF tpss/aug-cc-pvtz
|  3> #
|  4> ! tpss d3bj aug-cc-pvtz def2/j opt xyzfile
|  5>
|  6> *xyz 0 7
|  7> Mn 0.0 0.0 0.0
|  8> F 0.0 0.0 2.0
|  9> *
| 10>
| 11> %pal
| 12> nprocs 24
| 13> end
| 14>
| 15>
| 16>                          ****END OF INPUT****
 Total Charge           Charge          ....    0
 Multiplicity           Mult            ....    7
 Number of Electrons    NEL             ....   34
Dispersion correction           -0.000586881
FINAL SINGLE POINT ENERGY     -1250.969895982543
Dispersion correction            ... done
Dispersion correction           -0.000570191
FINAL SINGLE POINT ENERGY     -1250.972755087716
Dispersion correction            ... done
Dispersion correction           -0.000547893
FINAL SINGLE POINT ENERGY     -1250.977282656748
Dispersion correction            ... done
FINAL SINGLE POINT ENERGY     -1250.977582632460
Dispersion correction            ... done
Dispersion correction           -0.000549308
FINAL SINGLE POINT ENERGY     -1250.977603106920
Dispersion correction            ... done
Dispersion correction           -0.000549263
FINAL SINGLE POINT ENERGY     -1250.977601873043
Dispersion correction            ... done
                    ***********************HURRAY********************

CARTESIAN COORDINATES (ANGSTROEM)
---------------------------------
  Mn     0.000000    0.000000    0.085901
  F      0.000000    0.000000    1.914099

 Multiplicity           Mult            ....    7
 Number of Electrons    NEL             ....   34
 Basis Dimension        Dim             ....  139

ORBITAL ENERGIES
----------------
                 SPIN UP ORBITALS
  NO   OCC          E(Eh)            E(eV)
   0   1.0000    -234.720123     -6387.0593
   1   1.0000     -27.017443      -735.1820
   2   1.0000     -24.350831      -662.6198
   3   1.0000     -23.102731      -628.6573
   4   1.0000     -23.102731      -628.6573
   5   1.0000     -23.098327      -628.5374
   6   1.0000      -3.179279       -86.5126
   7   1.0000      -2.065910       -56.2163
   8   1.0000      -2.065910       -56.2163
   9   1.0000      -2.054422       -55.9037
  10   1.0000      -1.029102       -28.0033
  11   1.0000      -0.380341       -10.3496
  12   1.0000      -0.347588        -9.4584
  13   1.0000      -0.347588        -9.4584
  14   1.0000      -0.310719        -8.4551
  15   1.0000      -0.310675        -8.4539
  16   1.0000      -0.268839        -7.3155
  17   1.0000      -0.268839        -7.3155
  18   1.0000      -0.262707        -7.1486
  19   1.0000      -0.174583        -4.7507
  20   0.0000      -0.053958        -1.4683
  21   0.0000      -0.053958        -1.4683
  22   0.0000      -0.007402        -0.2014
  23   0.0000      -0.001429        -0.0389
  24   0.0000       0.022920         0.6237

                 SPIN DOWN ORBITALS
  NO   OCC          E(Eh)            E(eV)
   0   1.0000    -234.718132     -6387.0051
   1   1.0000     -26.946922      -733.2630
   2   1.0000     -24.345047      -662.4624
   3   1.0000     -23.044985      -627.0859
   4   1.0000     -23.044985      -627.0859
   5   1.0000     -23.041961      -627.0036
   6   1.0000      -2.989026       -81.3355
   7   1.0000      -1.874286       -51.0019
   8   1.0000      -1.874286       -51.0019
   9   1.0000      -1.866587       -50.7924
  10   1.0000      -1.016506       -27.6605
  11   1.0000      -0.346067        -9.4170
  12   1.0000      -0.315042        -8.5727
  13   1.0000      -0.315042        -8.5727
  14   0.0000      -0.134975        -3.6729
  15   0.0000      -0.134919        -3.6713
  16   0.0000      -0.130759        -3.5581
  17   0.0000      -0.115076        -3.1314
  18   0.0000      -0.115076        -3.1314

MULLIKEN ATOMIC CHARGES AND SPIN POPULATIONS
--------------------------------------------
   0 Mn:    0.587381    5.846358
   1 F :   -0.587381    0.153642
Sum of atomic charges         :    0.0000000

LOEWDIN ATOMIC CHARGES AND SPIN POPULATIONS
-------------------------------------------
   0 Mn:    0.417136    5.719050
   1 F :   -0.417136    0.280950

  Mayer bond orders larger than 0.100000
B(  0-Mn,  1-F ) :   0.7591

Dispersion correction           -0.000549264
FINAL SINGLE POINT ENERGY     -1250.977600785760

DIPOLE MOMENT
-------------
                                X             Y             Z
Electronic contribution:      0.00000      -0.00000      -1.71894
Nuclear contribution   :      0.00000       0.00000       0.91162
                        -----------------------------------------
Total Dipole Moment    :      0.00000      -0.00000      -0.80733
                        -----------------------------------------
Magnitude (a.u.)       :      0.80733
Magnitude (Debye)      :      2.05207

Rotational constants in cm-1:     0.000000     0.357290     0.357290
Rotational constants in MHz :     0.000000 10711.297675 10711.297675

                             ****ORCA TERMINATED NORMALLY****
TOTAL RUN TIME: 0 days 0 hours 1 minutes 5 seconds 120 msec
