                         Program Version 4.2.0 -  RELEASE  -
|  1> #
|  2> # 27_MnCl tpss/aug-cc-pvtz
|  3> #
|  4> ! tpss d3bj aug-cc-pvtz def2/j opt xyzfile
|  5>
|  6> *xyz 0 7
|  7> Mn 0.0 0.0 0.0
|  8> Cl 0.0 0.0 2.0
|  9> *
| 10>
| 11> %pal
| 12> nprocs 24
| 13> end
| 14>
| 15>
| 16>                          ****END OF INPUT****
 Total Charge           Charge          ....    0
 Multiplicity           Mult            ....    7
 Number of Electrons    NEL             ....   42
Dispersion correction           -0.001506754
FINAL SINGLE POINT ENERGY     -1611.328963918855
Dispersion correction            ... done
Dispersion correction           -0.001506930
FINAL SINGLE POINT ENERGY     -1611.333113628704
Dispersion correction            ... done
Dispersion correction           -0.001511811
FINAL SINGLE POINT ENERGY     -1611.343094522498
Dispersion correction            ... done
FINAL SINGLE POINT ENERGY     -1611.344313177761
Dispersion correction            ... done
Dispersion correction           -0.001521565
FINAL SINGLE POINT ENERGY     -1611.344470147320
Dispersion correction            ... done
Dispersion correction           -0.001522390
FINAL SINGLE POINT ENERGY     -1611.344474960312
Dispersion correction            ... done
                    ***********************HURRAY********************

CARTESIAN COORDINATES (ANGSTROEM)
---------------------------------
  Mn     0.000000    0.000000   -0.115859
  Cl     0.000000    0.000000    2.115859

 Multiplicity           Mult            ....    7
 Number of Electrons    NEL             ....   42
 Basis Dimension        Dim             ....  143

ORBITAL ENERGIES
----------------
                 SPIN UP ORBITALS
  NO   OCC          E(Eh)            E(eV)
   0   1.0000    -234.735770     -6387.4850
   1   1.0000    -100.989908     -2748.0751
   2   1.0000     -27.032834      -735.6008
   3   1.0000     -23.117742      -629.0657
   4   1.0000     -23.117742      -629.0657
   5   1.0000     -23.114507      -628.9777
   6   1.0000      -9.217357      -250.8170
   7   1.0000      -6.993666      -190.3073
   8   1.0000      -6.991503      -190.2485
   9   1.0000      -6.991503      -190.2485
  10   1.0000      -3.193483       -86.8991
  11   1.0000      -2.079244       -56.5791
  12   1.0000      -2.079244       -56.5791
  13   1.0000      -2.069484       -56.3135
  14   1.0000      -0.726125       -19.7589
  15   1.0000      -0.353873        -9.6294
  16   1.0000      -0.329641        -8.9700
  17   1.0000      -0.329641        -8.9700
  18   1.0000      -0.323097        -8.7919
  19   1.0000      -0.322593        -8.7782
  20   1.0000      -0.280482        -7.6323
  21   1.0000      -0.263088        -7.1590
  22   1.0000      -0.263088        -7.1590
  23   1.0000      -0.177839        -4.8392
  24   0.0000      -0.060371        -1.6428
  25   0.0000      -0.060371        -1.6428
  26   0.0000      -0.008901        -0.2422
  27   0.0000      -0.003437        -0.0935
  28   0.0000       0.019115         0.5201

                 SPIN DOWN ORBITALS
  NO   OCC          E(Eh)            E(eV)
   0   1.0000    -234.733843     -6387.4326
   1   1.0000    -100.988661     -2748.0412
   2   1.0000     -26.962430      -733.6850
   3   1.0000     -23.060127      -627.4980
   4   1.0000     -23.060127      -627.4980
   5   1.0000     -23.058245      -627.4468
   6   1.0000      -9.216143      -250.7840
   7   1.0000      -6.991721      -190.2544
   8   1.0000      -6.989959      -190.2065
   9   1.0000      -6.989959      -190.2065
  10   1.0000      -3.003213       -81.7216
  11   1.0000      -1.887546       -51.3627
  12   1.0000      -1.887546       -51.3627
  13   1.0000      -1.881330       -51.1936
  14   1.0000      -0.718291       -19.5457
  15   1.0000      -0.316961        -8.6250
  16   1.0000      -0.277396        -7.5483
  17   1.0000      -0.277396        -7.5483
  18   0.0000      -0.147491        -4.0134
  19   0.0000      -0.147151        -4.0042
  20   0.0000      -0.146122        -3.9762
  21   0.0000      -0.136840        -3.7236
  22   0.0000      -0.136840        -3.7236

MULLIKEN ATOMIC CHARGES AND SPIN POPULATIONS
--------------------------------------------
   0 Mn:    0.424700    5.838349
   1 Cl:   -0.424700    0.161651
Sum of atomic charges         :   -0.0000000

LOEWDIN ATOMIC CHARGES AND SPIN POPULATIONS
-------------------------------------------
   0 Mn:    0.086086    5.696117
   1 Cl:   -0.086086    0.303883

  Mayer bond orders larger than 0.100000
B(  0-Mn,  1-Cl) :   0.9929

Dispersion correction           -0.001522441
FINAL SINGLE POINT ENERGY     -1611.344474994861

DIPOLE MOMENT
-------------
                                X             Y             Z
Electronic contribution:     -0.00000      -0.00000      -3.15361
Nuclear contribution   :      0.00000       0.00000       2.22337
                        -----------------------------------------
Total Dipole Moment    :     -0.00000      -0.00000      -0.93024
                        -----------------------------------------
Magnitude (a.u.)       :      0.93024
Magnitude (Debye)      :      2.36449

Rotational constants in cm-1:     0.000000     0.157077     0.157077
Rotational constants in MHz :     0.000000  4709.038991  4709.038991

                             ****ORCA TERMINATED NORMALLY****
TOTAL RUN TIME: 0 days 0 hours 1 minutes 10 seconds 440 msec
