                         Program Version 4.2.0 -  RELEASE  -
|  1> #
|  2> # 28_MnBr tpss/aug-cc-pvtz
|  3> #
|  4> ! tpss d3bj aug-cc-pvtz def2/j opt xyzfile
|  5>
|  6> *xyz 0 7
|  7> Mn 0.0 0.0 0.0
|  8> Br 0.0 0.0 2.0
|  9> *
| 10>
| 11> %pal
| 12> nprocs 24
| 13> end
| 14>
| 15>
| 16>                          ****END OF INPUT****
 Total Charge           Charge          ....    0
 Multiplicity           Mult            ....    7
 Number of Electrons    NEL             ....   60
Dispersion correction           -0.001687074
FINAL SINGLE POINT ENERGY     -3725.172466730139
Dispersion correction            ... done
Dispersion correction           -0.001686642
FINAL SINGLE POINT ENERGY     -3725.182287837682
Dispersion correction            ... done
Dispersion correction           -0.001686220
FINAL SINGLE POINT ENERGY     -3725.208117414465
Dispersion correction            ... done
FINAL SINGLE POINT ENERGY     -3725.214019055469
FINAL SINGLE POINT ENERGY     -3725.215515847338
Dispersion correction            ... done
Dispersion correction           -0.001699052
FINAL SINGLE POINT ENERGY     -3725.215670438465
Dispersion correction            ... done
Dispersion correction           -0.001699785
FINAL SINGLE POINT ENERGY     -3725.215677707210
Dispersion correction            ... done
                    ***********************HURRAY********************

CARTESIAN COORDINATES (ANGSTROEM)
---------------------------------
  Mn     0.000000    0.000000   -0.188976
  Br     0.000000    0.000000    2.188976

 Multiplicity           Mult            ....    7
 Number of Electrons    NEL             ....   60
 Basis Dimension        Dim             ....  152

ORBITAL ENERGIES
----------------
                 SPIN UP ORBITALS
  NO   OCC          E(Eh)            E(eV)
   0   1.0000    -481.716196    -13108.1641
   1   1.0000    -234.737308     -6387.5269
   2   1.0000     -61.929118     -1685.1770
   3   1.0000     -55.762402     -1517.3721
   4   1.0000     -55.761677     -1517.3524
   5   1.0000     -55.761677     -1517.3524
   6   1.0000     -27.034054      -735.6340
   7   1.0000     -23.118881      -629.0967
   8   1.0000     -23.118881      -629.0967
   9   1.0000     -23.115917      -629.0161
  10   1.0000      -8.455906      -230.0969
  11   1.0000      -6.294045      -171.2697
  12   1.0000      -6.291945      -171.2125
  13   1.0000      -6.291945      -171.2125
  14   1.0000      -3.194639       -86.9305
  15   1.0000      -2.463513       -67.0356
  16   1.0000      -2.462560       -67.0097
  17   1.0000      -2.462560       -67.0097
  18   1.0000      -2.461084       -66.9695
  19   1.0000      -2.460867       -66.9636
  20   1.0000      -2.080240       -56.6062
  21   1.0000      -2.080240       -56.6062
  22   1.0000      -2.070858       -56.3509
  23   1.0000      -0.689799       -18.7704
  24   1.0000      -0.343403        -9.3445
  25   1.0000      -0.325732        -8.8636
  26   1.0000      -0.325732        -8.8636
  27   1.0000      -0.323890        -8.8135
  28   1.0000      -0.323600        -8.8056
  29   1.0000      -0.280379        -7.6295
  30   1.0000      -0.252242        -6.8638
  31   1.0000      -0.252242        -6.8638
  32   1.0000      -0.177344        -4.8258
  33   0.0000      -0.062284        -1.6948
  34   0.0000      -0.062284        -1.6948
  35   0.0000      -0.011250        -0.3061
  36   0.0000      -0.004282        -0.1165
  37   0.0000       0.017795         0.4842

                 SPIN DOWN ORBITALS
  NO   OCC          E(Eh)            E(eV)
   0   1.0000    -481.715730    -13108.1514
   1   1.0000    -234.735401     -6387.4750
   2   1.0000     -61.928956     -1685.1726
   3   1.0000     -55.761908     -1517.3587
   4   1.0000     -55.761331     -1517.3430
   5   1.0000     -55.761331     -1517.3430
   6   1.0000     -26.963772      -733.7215
   7   1.0000     -23.061366      -627.5317
   8   1.0000     -23.061366      -627.5317
   9   1.0000     -23.059770      -627.4882
  10   1.0000      -8.455256      -230.0792
  11   1.0000      -6.293201      -171.2467
  12   1.0000      -6.291261      -171.1939
  13   1.0000      -6.291261      -171.1939
  14   1.0000      -3.004618       -81.7598
  15   1.0000      -2.462472       -67.0073
  16   1.0000      -2.461563       -66.9825
  17   1.0000      -2.461563       -66.9825
  18   1.0000      -2.460216       -66.9459
  19   1.0000      -2.460001       -66.9400
  20   1.0000      -1.888753       -51.3956
  21   1.0000      -1.888753       -51.3956
  22   1.0000      -1.882976       -51.2384
  23   1.0000      -0.682944       -18.5838
  24   1.0000      -0.302100        -8.2206
  25   1.0000      -0.261121        -7.1055
  26   1.0000      -0.261121        -7.1055
  27   0.0000      -0.148512        -4.0412
  28   0.0000      -0.148291        -4.0352
  29   0.0000      -0.147709        -4.0194
  30   0.0000      -0.140039        -3.8107
  31   0.0000      -0.140039        -3.8107

MULLIKEN ATOMIC CHARGES AND SPIN POPULATIONS
--------------------------------------------
   0 Mn:    0.385740    5.827025
   1 Br:   -0.385740    0.172975
Sum of atomic charges         :   -0.0000000

LOEWDIN ATOMIC CHARGES AND SPIN POPULATIONS
-------------------------------------------
   0 Mn:    0.007274    5.682575
   1 Br:   -0.007274    0.317425

  Mayer bond orders larger than 0.100000
B(  0-Mn,  1-Br) :   1.0453

Dispersion correction           -0.001699827
FINAL SINGLE POINT ENERGY     -3725.215678004527

DIPOLE MOMENT
-------------
                                X             Y             Z
Electronic contribution:     -0.00000       0.00000       1.55438
Nuclear contribution   :      0.00000       0.00000      -2.48612
                        -----------------------------------------
Total Dipole Moment    :     -0.00000       0.00000      -0.93174
                        -----------------------------------------
Magnitude (a.u.)       :      0.93174
Magnitude (Debye)      :      2.36829

Rotational constants in cm-1:     0.000000     0.091574     0.091574
Rotational constants in MHz :     0.000000  2745.330169  2745.330169

                             ****ORCA TERMINATED NORMALLY****
TOTAL RUN TIME: 0 days 0 hours 1 minutes 34 seconds 519 msec
