                         Program Version 4.2.0 -  RELEASE  -
|  1> #
|  2> # 29_MnO tpss/aug-cc-pvtz
|  3> #
|  4> ! tpss d3bj aug-cc-pvtz def2/j opt xyzfile
|  5>
|  6> *xyz 0 6
|  7> Mn 0.0 0.0 0.0
|  8> O 0.0 0.0 2.0
|  9> *
| 10>
| 11> %pal
| 12> nprocs 24
| 13> end
| 14>
| 15>
| 16>                          ****END OF INPUT****
 Total Charge           Charge          ....    0
 Multiplicity           Mult            ....    6
 Number of Electrons    NEL             ....   33
Dispersion correction           -0.000818035
FINAL SINGLE POINT ENERGY     -1226.262331447236
Dispersion correction            ... done
Dispersion correction           -0.000769754
FINAL SINGLE POINT ENERGY     -1226.277539550654
Dispersion correction            ... done
Dispersion correction           -0.000746998
FINAL SINGLE POINT ENERGY     -1226.302438178299
Dispersion correction            ... done
FINAL SINGLE POINT ENERGY     -1226.310585840235
FINAL SINGLE POINT ENERGY     -1226.311214771397
Dispersion correction            ... done
Dispersion correction           -0.000744447
FINAL SINGLE POINT ENERGY     -1226.311298683606
Dispersion correction            ... done
Dispersion correction           -0.000744441
FINAL SINGLE POINT ENERGY     -1226.311297857665
Dispersion correction            ... done
                    ***********************HURRAY********************

CARTESIAN COORDINATES (ANGSTROEM)
---------------------------------
  Mn     0.000000    0.000000    0.185487
  O      0.000000    0.000000    1.814513

 Multiplicity           Mult            ....    6
 Number of Electrons    NEL             ....   33
 Basis Dimension        Dim             ....  139

ORBITAL ENERGIES
----------------
                 SPIN UP ORBITALS
  NO   OCC          E(Eh)            E(eV)
   0   1.0000    -234.695687     -6386.3943
   1   1.0000     -26.988098      -734.3835
   2   1.0000     -23.075355      -627.9123
   3   1.0000     -23.075355      -627.9123
   4   1.0000     -23.068397      -627.7230
   5   1.0000     -18.859045      -513.1807
   6   1.0000      -3.137302       -85.3703
   7   1.0000      -2.024776       -55.0969
   8   1.0000      -2.024776       -55.0969
   9   1.0000      -2.015191       -54.8361
  10   1.0000      -0.811450       -22.0807
  11   1.0000      -0.319803        -8.7023
  12   1.0000      -0.317167        -8.6305
  13   1.0000      -0.317167        -8.6305
  14   1.0000      -0.273498        -7.4423
  15   1.0000      -0.273455        -7.4411
  16   1.0000      -0.210133        -5.7180
  17   1.0000      -0.192673        -5.2429
  18   1.0000      -0.192673        -5.2429
  19   0.0000      -0.120802        -3.2872
  20   0.0000      -0.036063        -0.9813
  21   0.0000      -0.036063        -0.9813
  22   0.0000      -0.000062        -0.0017
  23   0.0000       0.006501         0.1769

                 SPIN DOWN ORBITALS
  NO   OCC          E(Eh)            E(eV)
   0   1.0000    -234.694062     -6386.3501
   1   1.0000     -26.929374      -732.7855
   2   1.0000     -23.027577      -626.6122
   3   1.0000     -23.024278      -626.5225
   4   1.0000     -23.024278      -626.5225
   5   1.0000     -18.853627      -513.0333
   6   1.0000      -2.980765       -81.1107
   7   1.0000      -1.877985       -51.1026
   8   1.0000      -1.858920       -50.5838
   9   1.0000      -1.858920       -50.5838
  10   1.0000      -0.798183       -21.7197
  11   1.0000      -0.290461        -7.9039
  12   1.0000      -0.253950        -6.9103
  13   1.0000      -0.253950        -6.9103
  14   0.0000      -0.122683        -3.3384
  15   0.0000      -0.117350        -3.1933
  16   0.0000      -0.117265        -3.1910
  17   0.0000      -0.088157        -2.3989
  18   0.0000      -0.088157        -2.3989

MULLIKEN ATOMIC CHARGES AND SPIN POPULATIONS
--------------------------------------------
   0 Mn:    0.583991    4.736371
   1 O :   -0.583991    0.263629
Sum of atomic charges         :   -0.0000000

LOEWDIN ATOMIC CHARGES AND SPIN POPULATIONS
-------------------------------------------
   0 Mn:    0.613943    4.622762
   1 O :   -0.613943    0.377238

  Mayer bond orders larger than 0.100000
B(  0-Mn,  1-O ) :   2.0617

Dispersion correction           -0.000744442
FINAL SINGLE POINT ENERGY     -1226.311297997095

DIPOLE MOMENT
-------------
                                X             Y             Z
Electronic contribution:     -0.00000       0.00000      -3.44804
Nuclear contribution   :      0.00000       0.00000       1.71606
                        -----------------------------------------
Total Dipole Moment    :     -0.00000       0.00000      -1.73198
                        -----------------------------------------
Magnitude (a.u.)       :      1.73198
Magnitude (Debye)      :      4.40233

Rotational constants in cm-1:     0.000000     0.512677     0.512677
Rotational constants in MHz :     0.000000 15369.677147 15369.677147

                             ****ORCA TERMINATED NORMALLY****
TOTAL RUN TIME: 0 days 0 hours 1 minutes 23 seconds 42 msec
