                         Program Version 4.2.0 -  RELEASE  -
|  1> #
|  2> # 30_MnS tpss/aug-cc-pvtz
|  3> #
|  4> ! tpss d3bj aug-cc-pvtz def2/j opt xyzfile
|  5>
|  6> *xyz 0 6
|  7> Mn 0.0 0.0 0.0
|  8> S 0.0 0.0 2.0
|  9> *
| 10>
| 11> %pal
| 12> nprocs 24
| 13> end
| 14>
| 15>
| 16>                          ****END OF INPUT****
 Total Charge           Charge          ....    0
 Multiplicity           Mult            ....    6
 Number of Electrons    NEL             ....   41
Dispersion correction           -0.001712056
FINAL SINGLE POINT ENERGY     -1549.310798011856
Dispersion correction            ... done
Dispersion correction           -0.001712058
FINAL SINGLE POINT ENERGY     -1549.310995928413
Dispersion correction            ... done
Dispersion correction           -0.001712230
FINAL SINGLE POINT ENERGY     -1549.311637056939
Dispersion correction            ... done
Dispersion correction           -0.001712264
FINAL SINGLE POINT ENERGY     -1549.311646042900
Dispersion correction            ... done
                    ***********************HURRAY********************

CARTESIAN COORDINATES (ANGSTROEM)
---------------------------------
  Mn     0.000000    0.000000   -0.022609
  S      0.000000    0.000000    2.022609

 Multiplicity           Mult            ....    6
 Number of Electrons    NEL             ....   41
 Basis Dimension        Dim             ....  143

ORBITAL ENERGIES
----------------
                 SPIN UP ORBITALS
  NO   OCC          E(Eh)            E(eV)
   0   1.0000    -234.695476     -6386.3886
   1   1.0000     -88.342299     -2403.9162
   2   1.0000     -26.983037      -734.2458
   3   1.0000     -23.070346      -627.7760
   4   1.0000     -23.070346      -627.7760
   5   1.0000     -23.063012      -627.5765
   6   1.0000      -7.697140      -209.4498
   7   1.0000      -5.675329      -154.4335
   8   1.0000      -5.674859      -154.4208
   9   1.0000      -5.674859      -154.4208
  10   1.0000      -3.137538       -85.3767
  11   1.0000      -2.025463       -55.1156
  12   1.0000      -2.025463       -55.1156
  13   1.0000      -2.014099       -54.8064
  14   1.0000      -0.583110       -15.8672
  15   1.0000      -0.294912        -8.0250
  16   1.0000      -0.287444        -7.8217
  17   1.0000      -0.287444        -7.8217
  18   1.0000      -0.276551        -7.5253
  19   1.0000      -0.276336        -7.5195
  20   1.0000      -0.226692        -6.1686
  21   1.0000      -0.188732        -5.1357
  22   1.0000      -0.188732        -5.1357
  23   0.0000      -0.134193        -3.6516
  24   0.0000      -0.041594        -1.1318
  25   0.0000      -0.041594        -1.1318
  26   0.0000      -0.001745        -0.0475
  27   0.0000       0.003321         0.0904

                 SPIN DOWN ORBITALS
  NO   OCC          E(Eh)            E(eV)
   0   1.0000    -234.694191     -6386.3536
   1   1.0000     -88.341648     -2403.8985
   2   1.0000     -26.922152      -732.5890
   3   1.0000     -23.018604      -626.3681
   4   1.0000     -23.018576      -626.3673
   5   1.0000     -23.018576      -626.3673
   6   1.0000      -7.696547      -209.4337
   7   1.0000      -5.677282      -154.4867
   8   1.0000      -5.672574      -154.3586
   9   1.0000      -5.672574      -154.3586
  10   1.0000      -2.973701       -80.9185
  11   1.0000      -1.862248       -50.6743
  12   1.0000      -1.855522       -50.4913
  13   1.0000      -1.855522       -50.4913
  14   1.0000      -0.576809       -15.6958
  15   1.0000      -0.255135        -6.9426
  16   1.0000      -0.214376        -5.8335
  17   1.0000      -0.214376        -5.8335
  18   0.0000      -0.130238        -3.5440
  19   0.0000      -0.118130        -3.2145
  20   0.0000      -0.117966        -3.2100
  21   0.0000      -0.107502        -2.9253
  22   0.0000      -0.107502        -2.9253

MULLIKEN ATOMIC CHARGES AND SPIN POPULATIONS
--------------------------------------------
   0 Mn:    0.325000    4.750127
   1 S :   -0.325000    0.249873
Sum of atomic charges         :   -0.0000000

LOEWDIN ATOMIC CHARGES AND SPIN POPULATIONS
-------------------------------------------
   0 Mn:    0.135264    4.664767
   1 S :   -0.135264    0.335233

  Mayer bond orders larger than 0.100000
B(  0-Mn,  1-S ) :   2.2327

Dispersion correction           -0.001712268
FINAL SINGLE POINT ENERGY     -1549.311646431448

DIPOLE MOMENT
-------------
                                X             Y             Z
Electronic contribution:      0.00000       0.00000      -5.54752
Nuclear contribution   :      0.00000       0.00000       3.44465
                        -----------------------------------------
Total Dipole Moment    :      0.00000       0.00000      -2.10287
                        -----------------------------------------
Magnitude (a.u.)       :      2.10287
Magnitude (Debye)      :      5.34508

Rotational constants in cm-1:     0.000000     0.199061     0.199061
Rotational constants in MHz :     0.000000  5967.684062  5967.684062

                             ****ORCA TERMINATED NORMALLY****
TOTAL RUN TIME: 0 days 0 hours 0 minutes 50 seconds 611 msec
