                         Program Version 4.2.0 -  RELEASE  -
|  1> #
|  2> # 31_FeH tpss/aug-cc-pvtz
|  3> #
|  4> ! tpss d3bj aug-cc-pvtz def2/j opt xyzfile
|  5>
|  6> *xyz 0 4
|  7> Fe 0.0 0.0 0.0
|  8> H 0.0 0.0 2.0
|  9> *
| 10>
| 11> %pal
| 12> nprocs 24
| 13> end
| 14>
| 15>
| 16>                          ****END OF INPUT****
 Total Charge           Charge          ....    0
 Multiplicity           Mult            ....    4
 Number of Electrons    NEL             ....   27
Dispersion correction           -0.000951093
FINAL SINGLE POINT ENERGY     -1264.286052299646
Dispersion correction            ... done
Dispersion correction           -0.000813948
FINAL SINGLE POINT ENERGY     -1264.298005558277
Dispersion correction            ... done
Dispersion correction           -0.000575378
FINAL SINGLE POINT ENERGY     -1264.307349149849
Dispersion correction            ... done
FINAL SINGLE POINT ENERGY     -1264.310723105296
Dispersion correction            ... done
Dispersion correction           -0.000472473
FINAL SINGLE POINT ENERGY     -1264.310796477446
Dispersion correction            ... done
Dispersion correction           -0.000470787
FINAL SINGLE POINT ENERGY     -1264.310806634826
Dispersion correction            ... done
                    ***********************HURRAY********************

CARTESIAN COORDINATES (ANGSTROEM)
---------------------------------
  Fe     0.000000    0.000000    0.228387
  H      0.000000    0.000000    1.771613

 Multiplicity           Mult            ....    4
 Number of Electrons    NEL             ....   27
 Basis Dimension        Dim             ....  116

ORBITAL ENERGIES
----------------
                 SPIN UP ORBITALS
  NO   OCC          E(Eh)            E(eV)
   0   1.0000    -255.185720     -6943.9565
   1   1.0000     -29.581751      -804.9604
   2   1.0000     -25.462019      -692.8568
   3   1.0000     -25.462019      -692.8568
   4   1.0000     -25.433206      -692.0727
   5   1.0000      -3.302343       -89.8613
   6   1.0000      -2.116896       -57.6037
   7   1.0000      -2.116896       -57.6037
   8   1.0000      -2.059028       -56.0290
   9   1.0000      -0.259718        -7.0673
  10   1.0000      -0.216923        -5.9028
  11   1.0000      -0.216874        -5.9014
  12   1.0000      -0.180282        -4.9057
  13   1.0000      -0.165325        -4.4987
  14   1.0000      -0.165325        -4.4987
  15   0.0000      -0.087825        -2.3898
  16   0.0000      -0.036620        -0.9965
  17   0.0000      -0.036620        -0.9965
  18   0.0000       0.005515         0.1501
  19   0.0000       0.017619         0.4794

                 SPIN DOWN ORBITALS
  NO   OCC          E(Eh)            E(eV)
   0   1.0000    -255.184905     -6943.9343
   1   1.0000     -29.539076      -803.7991
   2   1.0000     -25.421552      -691.7556
   3   1.0000     -25.421552      -691.7556
   4   1.0000     -25.410865      -691.4648
   5   1.0000      -3.193411       -86.8971
   6   1.0000      -1.989749       -54.1438
   7   1.0000      -1.989749       -54.1438
   8   1.0000      -1.985714       -54.0340
   9   1.0000      -0.252493        -6.8707
  10   1.0000      -0.120353        -3.2750
  11   1.0000      -0.120353        -3.2750
  12   0.0000      -0.095034        -2.5860
  13   0.0000      -0.083411        -2.2697
  14   0.0000      -0.083141        -2.2624
  15   0.0000      -0.043349        -1.1796
  16   0.0000      -0.015115        -0.4113

MULLIKEN ATOMIC CHARGES AND SPIN POPULATIONS
--------------------------------------------
   0 Fe:    0.006045    3.131936
   1 H :   -0.006045   -0.131936
Sum of atomic charges         :    0.0000000

LOEWDIN ATOMIC CHARGES AND SPIN POPULATIONS
-------------------------------------------
   0 Fe:    0.688776    2.999788
   1 H :   -0.688776    0.000212

  Mayer bond orders larger than 0.100000
B(  0-Fe,  1-H ) :   1.0225

Dispersion correction           -0.000470715
FINAL SINGLE POINT ENERGY     -1264.310806730575

DIPOLE MOMENT
-------------
                                X             Y             Z
Electronic contribution:      0.00000       0.00021      -2.53436
Nuclear contribution   :      0.00000       0.00000       1.52035
                        -----------------------------------------
Total Dipole Moment    :      0.00000       0.00021      -1.01401
                        -----------------------------------------
Magnitude (a.u.)       :      1.01401
Magnitude (Debye)      :      2.57740

Rotational constants in cm-1:     0.000000     7.149016     7.149016
Rotational constants in MHz :     0.000000 214322.097628 214322.097628

                             ****ORCA TERMINATED NORMALLY****
TOTAL RUN TIME: 0 days 0 hours 1 minutes 10 seconds 385 msec
