                         Program Version 4.2.0 -  RELEASE  -
|  1> #
|  2> # 32_FeF tpss/aug-cc-pvtz
|  3> #
|  4> ! tpss d3bj aug-cc-pvtz def2/j opt xyzfile
|  5>
|  6> *xyz 0 6
|  7> Fe 0.0 0.0 0.0
|  8> F 0.0 0.0 2.0
|  9> *
| 10>
| 11> %pal
| 12> nprocs 24
| 13> end
| 14>
| 15>
| 16>                          ****END OF INPUT****
 Total Charge           Charge          ....    0
 Multiplicity           Mult            ....    6
 Number of Electrons    NEL             ....   35
Dispersion correction           -0.000556617
FINAL SINGLE POINT ENERGY     -1363.663206433113
Dispersion correction            ... done
Dispersion correction           -0.000538960
FINAL SINGLE POINT ENERGY     -1363.667735764138
Dispersion correction            ... done
Dispersion correction           -0.000521082
FINAL SINGLE POINT ENERGY     -1363.676449516907
Dispersion correction            ... done
Dispersion correction           -0.000520545
FINAL SINGLE POINT ENERGY     -1363.676495153544
Dispersion correction            ... done
Dispersion correction           -0.000520734
FINAL SINGLE POINT ENERGY     -1363.676511704708
Dispersion correction            ... done
                    ***********************HURRAY********************

CARTESIAN COORDINATES (ANGSTROEM)
---------------------------------
  Fe     0.000000    0.000000    0.109643
  F      0.000000    0.000000    1.890357

 Multiplicity           Mult            ....    6
 Number of Electrons    NEL             ....   35
 Basis Dimension        Dim             ....  139

ORBITAL ENERGIES
----------------
                 SPIN UP ORBITALS
  NO   OCC          E(Eh)            E(eV)
   0   1.0000    -255.301964     -6947.1196
   1   1.0000     -29.721589      -808.7656
   2   1.0000     -25.607627      -696.8190
   3   1.0000     -25.581307      -696.1028
   4   1.0000     -25.581307      -696.1028
   5   1.0000     -24.375028      -663.2782
   6   1.0000      -3.451254       -93.9134
   7   1.0000      -2.277287       -61.9681
   8   1.0000      -2.227285       -60.6075
   9   1.0000      -2.227285       -60.6075
  10   1.0000      -1.054514       -28.6948
  11   1.0000      -0.410461       -11.1692
  12   1.0000      -0.373219       -10.1558
  13   1.0000      -0.373219       -10.1558
  14   1.0000      -0.318662        -8.6712
  15   1.0000      -0.293945        -7.9987
  16   1.0000      -0.293945        -7.9987
  17   1.0000      -0.289285        -7.8719
  18   1.0000      -0.278906        -7.5894
  19   1.0000      -0.179694        -4.8897
  20   0.0000      -0.048062        -1.3078
  21   0.0000      -0.048062        -1.3078
  22   0.0000      -0.006577        -0.1790
  23   0.0000       0.000046         0.0013
  24   0.0000       0.025255         0.6872

                 SPIN DOWN ORBITALS
  NO   OCC          E(Eh)            E(eV)
   0   1.0000    -255.300055     -6947.0677
   1   1.0000     -29.658693      -807.0541
   2   1.0000     -25.548393      -695.2071
   3   1.0000     -25.534445      -694.8276
   4   1.0000     -25.534445      -694.8276
   5   1.0000     -24.367296      -663.0678
   6   1.0000      -3.294952       -89.6602
   7   1.0000      -2.091594       -56.9152
   8   1.0000      -2.085350       -56.7453
   9   1.0000      -2.085350       -56.7453
  10   1.0000      -1.038021       -28.2460
  11   1.0000      -0.371808       -10.1174
  12   1.0000      -0.334848        -9.1117
  13   1.0000      -0.334848        -9.1117
  14   1.0000      -0.211598        -5.7579
  15   0.0000      -0.167749        -4.5647
  16   0.0000      -0.154435        -4.2024
  17   0.0000      -0.154435        -4.2024
  18   0.0000      -0.132764        -3.6127
  19   0.0000      -0.105342        -2.8665

MULLIKEN ATOMIC CHARGES AND SPIN POPULATIONS
--------------------------------------------
   0 Fe:    0.537035    4.788404
   1 F :   -0.537035    0.211596
Sum of atomic charges         :   -0.0000000

LOEWDIN ATOMIC CHARGES AND SPIN POPULATIONS
-------------------------------------------
   0 Fe:    0.388378    4.666877
   1 F :   -0.388378    0.333123

  Mayer bond orders larger than 0.100000
B(  0-Fe,  1-F ) :   0.8196

Dispersion correction           -0.000520728
FINAL SINGLE POINT ENERGY     -1363.676511685777

DIPOLE MOMENT
-------------
                                X             Y             Z
Electronic contribution:     -0.00000      -0.00000      -1.03626
Nuclear contribution   :      0.00000       0.00000       0.39123
                        -----------------------------------------
Total Dipole Moment    :     -0.00000      -0.00000      -0.64503
                        -----------------------------------------
Magnitude (a.u.)       :      0.64503
Magnitude (Debye)      :      1.63955

Rotational constants in cm-1:     0.000000     0.375023     0.375023
Rotational constants in MHz :     0.000000 11242.894653 11242.894653

                             ****ORCA TERMINATED NORMALLY****
TOTAL RUN TIME: 0 days 0 hours 0 minutes 57 seconds 749 msec
