                         Program Version 4.2.0 -  RELEASE  -
|  1> #
|  2> # 33_FeCl tpss/aug-cc-pvtz
|  3> #
|  4> ! tpss d3bj aug-cc-pvtz def2/j opt xyzfile
|  5>
|  6> *xyz 0 6
|  7> Fe 0.0 0.0 0.0
|  8> Cl 0.0 0.0 2.0
|  9> *
| 10>
| 11> %pal
| 12> nprocs 24
| 13> end
| 14>
| 15>
| 16>                          ****END OF INPUT****
 Total Charge           Charge          ....    0
 Multiplicity           Mult            ....    6
 Number of Electrons    NEL             ....   43
Dispersion correction           -0.001428045
FINAL SINGLE POINT ENERGY     -1724.031777194606
Dispersion correction            ... done
Dispersion correction           -0.001428045
FINAL SINGLE POINT ENERGY     -1724.034084741678
Dispersion correction            ... done
Dispersion correction           -0.001430091
FINAL SINGLE POINT ENERGY     -1724.040180073225
Dispersion correction            ... done
FINAL SINGLE POINT ENERGY     -1724.040671338833
Dispersion correction            ... done
Dispersion correction           -0.001433132
FINAL SINGLE POINT ENERGY     -1724.040696479560
Dispersion correction            ... done
Dispersion correction           -0.001433261
FINAL SINGLE POINT ENERGY     -1724.040694125437
Dispersion correction            ... done
                    ***********************HURRAY********************

CARTESIAN COORDINATES (ANGSTROEM)
---------------------------------
  Fe     0.000000    0.000000   -0.088949
  Cl     0.000000    0.000000    2.088949

 Multiplicity           Mult            ....    6
 Number of Electrons    NEL             ....   43
 Basis Dimension        Dim             ....  143

ORBITAL ENERGIES
----------------
                 SPIN UP ORBITALS
  NO   OCC          E(Eh)            E(eV)
   0   1.0000    -255.311589     -6947.3815
   1   1.0000    -101.007017     -2748.5407
   2   1.0000     -29.730408      -809.0055
   3   1.0000     -25.617105      -697.0769
   4   1.0000     -25.589884      -696.3361
   5   1.0000     -25.589884      -696.3361
   6   1.0000      -9.234264      -251.2771
   7   1.0000      -7.010906      -190.7765
   8   1.0000      -7.008418      -190.7088
   9   1.0000      -7.008418      -190.7088
  10   1.0000      -3.458785       -94.1183
  11   1.0000      -2.285328       -62.1869
  12   1.0000      -2.234270       -60.7976
  13   1.0000      -2.234270       -60.7976
  14   1.0000      -0.743730       -20.2379
  15   1.0000      -0.377877       -10.2825
  16   1.0000      -0.351236        -9.5576
  17   1.0000      -0.351236        -9.5576
  18   1.0000      -0.325012        -8.8440
  19   1.0000      -0.299785        -8.1576
  20   1.0000      -0.285621        -7.7721
  21   1.0000      -0.278907        -7.5894
  22   1.0000      -0.278907        -7.5894
  23   1.0000      -0.178764        -4.8644
  24   0.0000      -0.052667        -1.4331
  25   0.0000      -0.052667        -1.4331
  26   0.0000      -0.007889        -0.2147
  27   0.0000      -0.001354        -0.0368
  28   0.0000       0.021042         0.5726

                 SPIN DOWN ORBITALS
  NO   OCC          E(Eh)            E(eV)
   0   1.0000    -255.309753     -6947.3316
   1   1.0000    -101.005234     -2748.4922
   2   1.0000     -29.668223      -807.3134
   3   1.0000     -25.558617      -695.4853
   4   1.0000     -25.543545      -695.0752
   5   1.0000     -25.543545      -695.0752
   6   1.0000      -9.232550      -251.2304
   7   1.0000      -7.008204      -190.7029
   8   1.0000      -7.006184      -190.6480
   9   1.0000      -7.006184      -190.6480
  10   1.0000      -3.303859       -89.9026
  11   1.0000      -2.101286       -57.1789
  12   1.0000      -2.093445       -56.9655
  13   1.0000      -2.093445       -56.9655
  14   1.0000      -0.732952       -19.9446
  15   1.0000      -0.335905        -9.1404
  16   1.0000      -0.290964        -7.9175
  17   1.0000      -0.290964        -7.9175
  18   1.0000      -0.218975        -5.9586
  19   0.0000      -0.182968        -4.9788
  20   0.0000      -0.170769        -4.6469
  21   0.0000      -0.170769        -4.6469
  22   0.0000      -0.139966        -3.8087
  23   0.0000      -0.115169        -3.1339

MULLIKEN ATOMIC CHARGES AND SPIN POPULATIONS
--------------------------------------------
   0 Fe:    0.377224    4.746898
   1 Cl:   -0.377224    0.253102
Sum of atomic charges         :   -0.0000000

LOEWDIN ATOMIC CHARGES AND SPIN POPULATIONS
-------------------------------------------
   0 Fe:    0.038999    4.626662
   1 Cl:   -0.038999    0.373338

  Mayer bond orders larger than 0.100000
B(  0-Fe,  1-Cl) :   1.0719

Dispersion correction           -0.001433265
FINAL SINGLE POINT ENERGY     -1724.040693902257

DIPOLE MOMENT
-------------
                                X             Y             Z
Electronic contribution:      0.00000       0.00000      -1.89630
Nuclear contribution   :      0.00000       0.00000       1.24736
                        -----------------------------------------
Total Dipole Moment    :      0.00000       0.00000      -0.64894
                        -----------------------------------------
Magnitude (a.u.)       :      0.64894
Magnitude (Debye)      :      1.64948

Rotational constants in cm-1:     0.000000     0.163882     0.163882
Rotational constants in MHz :     0.000000  4913.053230  4913.053230

                             ****ORCA TERMINATED NORMALLY****
TOTAL RUN TIME: 0 days 0 hours 1 minutes 10 seconds 727 msec
