                         Program Version 4.2.0 -  RELEASE  -
|  1> #
|  2> # 34_FeBr tpss/aug-cc-pvtz
|  3> #
|  4> ! tpss d3bj aug-cc-pvtz def2/j opt xyzfile
|  5>
|  6> *xyz 0 6
|  7> Fe 0.0 0.0 0.0
|  8> Br 0.0 0.0 2.0
|  9> *
| 10>
| 11> %pal
| 12> nprocs 24
| 13> end
| 14>
| 15>
| 16>                          ****END OF INPUT****
 Total Charge           Charge          ....    0
 Multiplicity           Mult            ....    6
 Number of Electrons    NEL             ....   61
Dispersion correction           -0.001601922
FINAL SINGLE POINT ENERGY     -3837.880129795118
Dispersion correction            ... done
Dispersion correction           -0.001601510
FINAL SINGLE POINT ENERGY     -3837.886995867535
Dispersion correction            ... done
Dispersion correction           -0.001600264
FINAL SINGLE POINT ENERGY     -3837.907136907393
Dispersion correction            ... done
FINAL SINGLE POINT ENERGY     -3837.910774449560
FINAL SINGLE POINT ENERGY     -3837.911509442823
Dispersion correction            ... done
Dispersion correction           -0.001604438
FINAL SINGLE POINT ENERGY     -3837.911547981293
Dispersion correction            ... done
Dispersion correction           -0.001604590
FINAL SINGLE POINT ENERGY     -3837.911545826125
Dispersion correction            ... done
                    ***********************HURRAY********************

CARTESIAN COORDINATES (ANGSTROEM)
---------------------------------
  Fe     0.000000    0.000000   -0.162530
  Br     0.000000    0.000000    2.162530

 Multiplicity           Mult            ....    6
 Number of Electrons    NEL             ....   61
 Basis Dimension        Dim             ....  152

ORBITAL ENERGIES
----------------
                 SPIN UP ORBITALS
  NO   OCC          E(Eh)            E(eV)
   0   1.0000    -481.731139    -13108.5707
   1   1.0000    -255.310322     -6947.3471
   2   1.0000     -61.943963     -1685.5809
   3   1.0000     -55.777673     -1517.7877
   4   1.0000     -55.776406     -1517.7532
   5   1.0000     -55.776406     -1517.7532
   6   1.0000     -29.728516      -808.9540
   7   1.0000     -25.615262      -697.0267
   8   1.0000     -25.588019      -696.2854
   9   1.0000     -25.588019      -696.2854
  10   1.0000      -8.470809      -230.5024
  11   1.0000      -6.309092      -171.6791
  12   1.0000      -6.306800      -171.6168
  13   1.0000      -6.306800      -171.6168
  14   1.0000      -3.456824       -94.0650
  15   1.0000      -2.478631       -67.4470
  16   1.0000      -2.477562       -67.4179
  17   1.0000      -2.477562       -67.4179
  18   1.0000      -2.475928       -67.3734
  19   1.0000      -2.475694       -67.3671
  20   1.0000      -2.283333       -62.1327
  21   1.0000      -2.232350       -60.7453
  22   1.0000      -2.232350       -60.7453
  23   1.0000      -0.705360       -19.1938
  24   1.0000      -0.365630        -9.9493
  25   1.0000      -0.344978        -9.3873
  26   1.0000      -0.344978        -9.3873
  27   1.0000      -0.323414        -8.8005
  28   1.0000      -0.296085        -8.0569
  29   1.0000      -0.283930        -7.7261
  30   1.0000      -0.265699        -7.2300
  31   1.0000      -0.265699        -7.2300
  32   1.0000      -0.177215        -4.8223
  33   0.0000      -0.053985        -1.4690
  34   0.0000      -0.053985        -1.4690
  35   0.0000      -0.010216        -0.2780
  36   0.0000      -0.002160        -0.0588
  37   0.0000       0.019752         0.5375

                 SPIN DOWN ORBITALS
  NO   OCC          E(Eh)            E(eV)
   0   1.0000    -481.730464    -13108.5524
   1   1.0000    -255.308513     -6947.2978
   2   1.0000     -61.943737     -1685.5748
   3   1.0000     -55.777000     -1517.7693
   4   1.0000     -55.775886     -1517.7390
   5   1.0000     -55.775886     -1517.7390
   6   1.0000     -29.666700      -807.2719
   7   1.0000     -25.557170      -695.4460
   8   1.0000     -25.541943      -695.0316
   9   1.0000     -25.541943      -695.0316
  10   1.0000      -8.469877      -230.4771
  11   1.0000      -6.307922      -171.6473
  12   1.0000      -6.305797      -171.5895
  13   1.0000      -6.305797      -171.5895
  14   1.0000      -3.302710       -89.8713
  15   1.0000      -2.477174       -67.4073
  16   1.0000      -2.476154       -67.3796
  17   1.0000      -2.476154       -67.3796
  18   1.0000      -2.474650       -67.3386
  19   1.0000      -2.474417       -67.3323
  20   1.0000      -2.100379       -57.1542
  21   1.0000      -2.092184       -56.9312
  22   1.0000      -2.092184       -56.9312
  23   1.0000      -0.695732       -18.9318
  24   1.0000      -0.318761        -8.6739
  25   1.0000      -0.272932        -7.4268
  26   1.0000      -0.272932        -7.4268
  27   1.0000      -0.217646        -5.9224
  28   0.0000      -0.183535        -4.9942
  29   0.0000      -0.171654        -4.6709
  30   0.0000      -0.171654        -4.6709
  31   0.0000      -0.138928        -3.7804
  32   0.0000      -0.116153        -3.1607

MULLIKEN ATOMIC CHARGES AND SPIN POPULATIONS
--------------------------------------------
   0 Fe:    0.335079    4.716788
   1 Br:   -0.335079    0.283212
Sum of atomic charges         :   -0.0000000

LOEWDIN ATOMIC CHARGES AND SPIN POPULATIONS
-------------------------------------------
   0 Fe:   -0.048112    4.602269
   1 Br:    0.048112    0.397731

  Mayer bond orders larger than 0.100000
B(  0-Fe,  1-Br) :   1.1356

Dispersion correction           -0.001604595
FINAL SINGLE POINT ENERGY     -3837.911545820164

DIPOLE MOMENT
-------------
                                X             Y             Z
Electronic contribution:      0.00000      -0.00000       3.35270
Nuclear contribution   :      0.00000       0.00000      -3.96973
                        -----------------------------------------
Total Dipole Moment    :      0.00000      -0.00000      -0.61703
                        -----------------------------------------
Magnitude (a.u.)       :      0.61703
Magnitude (Debye)      :      1.56835

Rotational constants in cm-1:     0.000000     0.094863     0.094863
Rotational constants in MHz :     0.000000  2843.931812  2843.931812

                             ****ORCA TERMINATED NORMALLY****
TOTAL RUN TIME: 0 days 0 hours 1 minutes 35 seconds 43 msec
