                         Program Version 4.2.0 -  RELEASE  -
|  1> #
|  2> # 35_FeO tpss/aug-cc-pvtz
|  3> #
|  4> ! tpss d3bj aug-cc-pvtz def2/j opt xyzfile
|  5>
|  6> *xyz 0 5
|  7> Fe 0.0 0.0 0.0
|  8> O 0.0 0.0 2.0
|  9> *
| 10>
| 11> %pal
| 12> nprocs 24
| 13> end
| 14>
| 15>
| 16>                          ****END OF INPUT****
 Total Charge           Charge          ....    0
 Multiplicity           Mult            ....    5
 Number of Electrons    NEL             ....   34
Dispersion correction           -0.000772748
FINAL SINGLE POINT ENERGY     -1338.964165856258
Dispersion correction            ... done
Dispersion correction           -0.000727728
FINAL SINGLE POINT ENERGY     -1338.980913345494
Dispersion correction            ... done
Dispersion correction           -0.000707896
FINAL SINGLE POINT ENERGY     -1339.007941196959
Dispersion correction            ... done
FINAL SINGLE POINT ENERGY     -1339.019745446150
Dispersion correction            ... done
Dispersion correction           -0.000705806
FINAL SINGLE POINT ENERGY     -1339.019797185558
Dispersion correction            ... done
Dispersion correction           -0.000705794
FINAL SINGLE POINT ENERGY     -1339.019832936633
Dispersion correction            ... done
                    ***********************HURRAY********************

CARTESIAN COORDINATES (ANGSTROEM)
---------------------------------
  Fe     0.000000    0.000000    0.196113
  O      0.000000    0.000000    1.803887

 Multiplicity           Mult            ....    5
 Number of Electrons    NEL             ....   34
 Basis Dimension        Dim             ....  139

ORBITAL ENERGIES
----------------
                 SPIN UP ORBITALS
  NO   OCC          E(Eh)            E(eV)
   0   1.0000    -255.252669     -6945.7782
   1   1.0000     -29.661645      -807.1344
   2   1.0000     -25.544613      -695.1043
   3   1.0000     -25.525101      -694.5733
   4   1.0000     -25.525101      -694.5733
   5   1.0000     -18.870643      -513.4963
   6   1.0000      -3.381067       -92.0035
   7   1.0000      -2.205938       -60.0266
   8   1.0000      -2.160785       -58.7980
   9   1.0000      -2.160785       -58.7980
  10   1.0000      -0.825716       -22.4689
  11   1.0000      -0.332421        -9.0456
  12   1.0000      -0.322239        -8.7686
  13   1.0000      -0.322239        -8.7686
  14   1.0000      -0.260363        -7.0848
  15   1.0000      -0.221710        -6.0330
  16   1.0000      -0.211533        -5.7561
  17   1.0000      -0.199781        -5.4363
  18   1.0000      -0.199781        -5.4363
  19   0.0000      -0.126416        -3.4400
  20   0.0000      -0.028763        -0.7827
  21   0.0000      -0.028763        -0.7827
  22   0.0000       0.001973         0.0537
  23   0.0000       0.008422         0.2292

                 SPIN DOWN ORBITALS
  NO   OCC          E(Eh)            E(eV)
   0   1.0000    -255.251230     -6945.7391
   1   1.0000     -29.613088      -805.8131
   2   1.0000     -25.503821      -693.9943
   3   1.0000     -25.486459      -693.5218
   4   1.0000     -25.486459      -693.5218
   5   1.0000     -18.859794      -513.2011
   6   1.0000      -3.261527       -88.7507
   7   1.0000      -2.074486       -56.4496
   8   1.0000      -2.047164       -55.7062
   9   1.0000      -2.047164       -55.7062
  10   1.0000      -0.801806       -21.8183
  11   1.0000      -0.299191        -8.1414
  12   1.0000      -0.258020        -7.0211
  13   1.0000      -0.258020        -7.0211
  14   1.0000      -0.172532        -4.6948
  15   0.0000      -0.138750        -3.7756
  16   0.0000      -0.105286        -2.8650
  17   0.0000      -0.105286        -2.8650
  18   0.0000      -0.099753        -2.7144
  19   0.0000      -0.080689        -2.1957

MULLIKEN ATOMIC CHARGES AND SPIN POPULATIONS
--------------------------------------------
   0 Fe:    0.559113    3.532993
   1 O :   -0.559113    0.467007
Sum of atomic charges         :   -0.0000000

LOEWDIN ATOMIC CHARGES AND SPIN POPULATIONS
-------------------------------------------
   0 Fe:    0.578144    3.468617
   1 O :   -0.578144    0.531383

  Mayer bond orders larger than 0.100000
B(  0-Fe,  1-O ) :   2.0770

Dispersion correction           -0.000705793
FINAL SINGLE POINT ENERGY     -1339.019833641363

DIPOLE MOMENT
-------------
                                X             Y             Z
Electronic contribution:     -0.00000       0.00000      -3.04617
Nuclear contribution   :      0.00000       0.00000       1.30353
                        -----------------------------------------
Total Dipole Moment    :     -0.00000       0.00000      -1.74264
                        -----------------------------------------
Magnitude (a.u.)       :      1.74264
Magnitude (Debye)      :      4.42945

Rotational constants in cm-1:     0.000000     0.524387     0.524387
Rotational constants in MHz :     0.000000 15720.731712 15720.731712

                             ****ORCA TERMINATED NORMALLY****
TOTAL RUN TIME: 0 days 0 hours 1 minutes 17 seconds 533 msec
