                         Program Version 4.2.0 -  RELEASE  -
|  1> #
|  2> # 36_FeS tpss/aug-cc-pvtz
|  3> #
|  4> ! tpss d3bj aug-cc-pvtz def2/j opt xyzfile
|  5>
|  6> *xyz 0 5
|  7> Fe 0.0 0.0 0.0
|  8> S 0.0 0.0 2.0
|  9> *
| 10>
| 11> %pal
| 12> nprocs 24
| 13> end
| 14>
| 15>
| 16>                          ****END OF INPUT****
 Total Charge           Charge          ....    0
 Multiplicity           Mult            ....    5
 Number of Electrons    NEL             ....   42
Dispersion correction           -0.001620005
FINAL SINGLE POINT ENERGY     -1662.020712568327
Dispersion correction            ... done
Dispersion correction           -0.001619999
FINAL SINGLE POINT ENERGY     -1662.020722889087
Dispersion correction            ... done
Dispersion correction           -0.001619969
FINAL SINGLE POINT ENERGY     -1662.020752233543
Dispersion correction            ... done
                    ***********************HURRAY********************

CARTESIAN COORDINATES (ANGSTROEM)
---------------------------------
  Fe     0.000000    0.000000   -0.005991
  S      0.000000    0.000000    2.005991

 Multiplicity           Mult            ....    5
 Number of Electrons    NEL             ....   42
 Basis Dimension        Dim             ....  143

ORBITAL ENERGIES
----------------
                 SPIN UP ORBITALS
  NO   OCC          E(Eh)            E(eV)
   0   1.0000    -255.249407     -6945.6895
   1   1.0000     -88.350616     -2404.1425
   2   1.0000     -29.653712      -806.9185
   3   1.0000     -25.536344      -694.8792
   4   1.0000     -25.517255      -694.3598
   5   1.0000     -25.517255      -694.3598
   6   1.0000      -7.705114      -209.6668
   7   1.0000      -5.683324      -154.6511
   8   1.0000      -5.683259      -154.6493
   9   1.0000      -5.683259      -154.6493
  10   1.0000      -3.377468       -91.9056
  11   1.0000      -2.200550       -59.8800
  12   1.0000      -2.158059       -58.7238
  13   1.0000      -2.158059       -58.7238
  14   1.0000      -0.593730       -16.1562
  15   1.0000      -0.302412        -8.2291
  16   1.0000      -0.287825        -7.8321
  17   1.0000      -0.287825        -7.8321
  18   1.0000      -0.259820        -7.0701
  19   1.0000      -0.227053        -6.1784
  20   1.0000      -0.221933        -6.0391
  21   1.0000      -0.194379        -5.2893
  22   1.0000      -0.194379        -5.2893
  23   0.0000      -0.132368        -3.6019
  24   0.0000      -0.032166        -0.8753
  25   0.0000      -0.032166        -0.8753
  26   0.0000       0.001203         0.0327
  27   0.0000       0.004673         0.1272

                 SPIN DOWN ORBITALS
  NO   OCC          E(Eh)            E(eV)
   0   1.0000    -255.248315     -6945.6598
   1   1.0000     -88.348790     -2404.0928
   2   1.0000     -29.603432      -805.5503
   3   1.0000     -25.492552      -693.6876
   4   1.0000     -25.478176      -693.2964
   5   1.0000     -25.478176      -693.2964
   6   1.0000      -7.703472      -209.6221
   7   1.0000      -5.683538      -154.6569
   8   1.0000      -5.679484      -154.5466
   9   1.0000      -5.679484      -154.5466
  10   1.0000      -3.252615       -88.5082
  11   1.0000      -2.058463       -56.0136
  12   1.0000      -2.041625       -55.5555
  13   1.0000      -2.041625       -55.5555
  14   1.0000      -0.579632       -15.7726
  15   1.0000      -0.262344        -7.1387
  16   1.0000      -0.219299        -5.9674
  17   1.0000      -0.219299        -5.9674
  18   1.0000      -0.170405        -4.6370
  19   0.0000      -0.145746        -3.9659
  20   0.0000      -0.122004        -3.3199
  21   0.0000      -0.122004        -3.3199
  22   0.0000      -0.097832        -2.6622
  23   0.0000      -0.094429        -2.5695

MULLIKEN ATOMIC CHARGES AND SPIN POPULATIONS
--------------------------------------------
   0 Fe:    0.296925    3.486033
   1 S :   -0.296925    0.513967
Sum of atomic charges         :   -0.0000000

LOEWDIN ATOMIC CHARGES AND SPIN POPULATIONS
-------------------------------------------
   0 Fe:    0.083270    3.475375
   1 S :   -0.083270    0.524625

  Mayer bond orders larger than 0.100000
B(  0-Fe,  1-S ) :   2.2738

Dispersion correction           -0.001619969
FINAL SINGLE POINT ENERGY     -1662.020751301885

DIPOLE MOMENT
-------------
                                X             Y             Z
Electronic contribution:      0.00000       0.00000      -4.56961
Nuclear contribution   :      0.00000       0.00000       2.59672
                        -----------------------------------------
Total Dipole Moment    :      0.00000       0.00000      -1.97289
                        -----------------------------------------
Magnitude (a.u.)       :      1.97289
Magnitude (Debye)      :      5.01468

Rotational constants in cm-1:     0.000000     0.204456     0.204456
Rotational constants in MHz :     0.000000  6129.444038  6129.444038

                             ****ORCA TERMINATED NORMALLY****
TOTAL RUN TIME: 0 days 0 hours 0 minutes 39 seconds 675 msec
