                         Program Version 4.2.0 -  RELEASE  -
|  1> #
|  2> # 37_CoH tpss/aug-cc-pvtz
|  3> #
|  4> ! tpss d3bj aug-cc-pvtz def2/j opt xyzfile
|  5>
|  6> *xyz 0 3
|  7> Co 0.0 0.0 0.0
|  8> H 0.0 0.0 2.0
|  9> *
| 10>
| 11> %pal
| 12> nprocs 24
| 13> end
| 14>
| 15>
| 16>                          ****END OF INPUT****
 Total Charge           Charge          ....    0
 Multiplicity           Mult            ....    3
 Number of Electrons    NEL             ....   28
Dispersion correction           -0.001054022
FINAL SINGLE POINT ENERGY     -1383.371077079414
Dispersion correction            ... done
Dispersion correction           -0.000971026
FINAL SINGLE POINT ENERGY     -1383.383585762173
Dispersion correction            ... done
Dispersion correction           -0.000712994
FINAL SINGLE POINT ENERGY     -1383.393690908778
Dispersion correction            ... done
FINAL SINGLE POINT ENERGY     -1383.398296255564
Dispersion correction            ... done
Dispersion correction           -0.000499489
FINAL SINGLE POINT ENERGY     -1383.398294072854
Dispersion correction            ... done
Dispersion correction           -0.000500266
FINAL SINGLE POINT ENERGY     -1383.398294322136
Dispersion correction            ... done
                    ***********************HURRAY********************

CARTESIAN COORDINATES (ANGSTROEM)
---------------------------------
  Co     0.000000    0.000000    0.239650
  H      0.000000    0.000000    1.760350

 Multiplicity           Mult            ....    3
 Number of Electrons    NEL             ....   28
 Basis Dimension        Dim             ....  116

ORBITAL ENERGIES
----------------
                 SPIN UP ORBITALS
  NO   OCC          E(Eh)            E(eV)
   0   1.0000    -276.605612     -7526.8214
   1   1.0000     -32.378777      -881.0713
   2   1.0000     -28.035099      -762.8738
   3   1.0000     -28.035099      -762.8738
   4   1.0000     -28.034138      -762.8477
   5   1.0000      -3.560645       -96.8901
   6   1.0000      -2.264693       -61.6254
   7   1.0000      -2.264693       -61.6254
   8   1.0000      -2.264595       -61.6228
   9   1.0000      -0.269348        -7.3293
  10   1.0000      -0.208574        -5.6756
  11   1.0000      -0.187411        -5.0997
  12   1.0000      -0.172516        -4.6944
  13   1.0000      -0.172516        -4.6944
  14   1.0000      -0.169300        -4.6069
  15   0.0000      -0.090682        -2.4676
  16   0.0000      -0.029643        -0.8066
  17   0.0000      -0.029643        -0.8066
  18   0.0000       0.007182         0.1954
  19   0.0000       0.019486         0.5302

                 SPIN DOWN ORBITALS
  NO   OCC          E(Eh)            E(eV)
   0   1.0000    -276.604964     -7526.8037
   1   1.0000     -32.349770      -880.2820
   2   1.0000     -28.013653      -762.2902
   3   1.0000     -28.009992      -762.1906
   4   1.0000     -28.009992      -762.1906
   5   1.0000      -3.487270       -94.8935
   6   1.0000      -2.193472       -59.6874
   7   1.0000      -2.189342       -59.5750
   8   1.0000      -2.189342       -59.5750
   9   1.0000      -0.259587        -7.0637
  10   1.0000      -0.142338        -3.8732
  11   1.0000      -0.142338        -3.8732
  12   1.0000      -0.139838        -3.8052
  13   0.0000      -0.105409        -2.8683
  14   0.0000      -0.072937        -1.9847
  15   0.0000      -0.063739        -1.7344
  16   0.0000      -0.014029        -0.3817
  17   0.0000      -0.014029        -0.3817

MULLIKEN ATOMIC CHARGES AND SPIN POPULATIONS
--------------------------------------------
   0 Co:   -0.006791    2.090005
   1 H :    0.006791   -0.090005
Sum of atomic charges         :    0.0000000

LOEWDIN ATOMIC CHARGES AND SPIN POPULATIONS
-------------------------------------------
   0 Co:    0.611912    1.989165
   1 H :   -0.611912    0.010835

  Mayer bond orders larger than 0.100000
B(  0-Co,  1-H ) :   1.0448

Dispersion correction           -0.000500260
FINAL SINGLE POINT ENERGY     -1383.398294764169

DIPOLE MOMENT
-------------
                                X             Y             Z
Electronic contribution:     -0.00000       0.00000      -2.55782
Nuclear contribution   :      0.00000       0.00000       1.52052
                        -----------------------------------------
Total Dipole Moment    :     -0.00000       0.00000      -1.03731
                        -----------------------------------------
Magnitude (a.u.)       :      1.03731
Magnitude (Debye)      :      2.63663

Rotational constants in cm-1:     0.000000     7.355540     7.355540
Rotational constants in MHz :     0.000000 220513.537195 220513.537195

                             ****ORCA TERMINATED NORMALLY****
TOTAL RUN TIME: 0 days 0 hours 1 minutes 4 seconds 675 msec
