                         Program Version 4.2.0 -  RELEASE  -
|  1> #
|  2> # 38_CoF tpss/aug-cc-pvtz
|  3> #
|  4> ! tpss d3bj aug-cc-pvtz def2/j opt xyzfile
|  5>
|  6> *xyz 0 3
|  7> Co 0.0 0.0 0.0
|  8> F 0.0 0.0 2.0
|  9> *
| 10>
| 11> %pal
| 12> nprocs 24
| 13> end
| 14>
| 15>
| 16>                          ****END OF INPUT****
 Total Charge           Charge          ....    0
 Multiplicity           Mult            ....    3
 Number of Electrons    NEL             ....   36
Dispersion correction           -0.000641333
FINAL SINGLE POINT ENERGY     -1482.721500078862
Dispersion correction            ... done
Dispersion correction           -0.000596344
FINAL SINGLE POINT ENERGY     -1482.725979857068
Dispersion correction            ... done
Dispersion correction           -0.000534139
FINAL SINGLE POINT ENERGY     -1482.736039905432
Dispersion correction            ... done
FINAL SINGLE POINT ENERGY     -1482.736231672756
Dispersion correction            ... done
Dispersion correction           -0.000530322
FINAL SINGLE POINT ENERGY     -1482.736600864060
Dispersion correction            ... done
Dispersion correction           -0.000530073
FINAL SINGLE POINT ENERGY     -1482.736604767289
Dispersion correction            ... done
                    ***********************HURRAY********************

CARTESIAN COORDINATES (ANGSTROEM)
---------------------------------
  Co     0.000000    0.000000    0.123389
  F      0.000000    0.000000    1.876611

 Multiplicity           Mult            ....    3
 Number of Electrons    NEL             ....   36
 Basis Dimension        Dim             ....  139

ORBITAL ENERGIES
----------------
                 SPIN UP ORBITALS
  NO   OCC          E(Eh)            E(eV)
   0   1.0000    -276.653427     -7528.1225
   1   1.0000     -32.431989      -882.5193
   2   1.0000     -28.090423      -764.3793
   3   1.0000     -28.088859      -764.3367
   4   1.0000     -28.082677      -764.1685
   5   1.0000     -24.340577      -662.3408
   6   1.0000      -3.619467       -98.4907
   7   1.0000      -2.331092       -63.4322
   8   1.0000      -2.325159       -63.2708
   9   1.0000      -2.311951       -62.9114
  10   1.0000      -1.012839       -27.5607
  11   1.0000      -0.356387        -9.6978
  12   1.0000      -0.324101        -8.8192
  13   1.0000      -0.313001        -8.5172
  14   1.0000      -0.247928        -6.7465
  15   1.0000      -0.235943        -6.4203
  16   1.0000      -0.213745        -5.8163
  17   1.0000      -0.203078        -5.5260
  18   1.0000      -0.200838        -5.4651
  19   0.0000      -0.137060        -3.7296
  20   0.0000      -0.022650        -0.6163
  21   0.0000      -0.021055        -0.5729
  22   0.0000       0.006628         0.1804
  23   0.0000       0.012117         0.3297

                 SPIN DOWN ORBITALS
  NO   OCC          E(Eh)            E(eV)
   0   1.0000    -276.653032     -7528.1117
   1   1.0000     -32.397581      -881.5830
   2   1.0000     -28.061792      -763.6002
   3   1.0000     -28.060874      -763.5752
   4   1.0000     -28.055572      -763.4309
   5   1.0000     -24.338806      -662.2926
   6   1.0000      -3.533759       -96.1585
   7   1.0000      -2.243243       -61.0418
   8   1.0000      -2.233655       -60.7808
   9   1.0000      -2.233551       -60.7780
  10   1.0000      -1.009052       -27.4577
  11   1.0000      -0.346535        -9.4297
  12   1.0000      -0.307952        -8.3798
  13   1.0000      -0.302042        -8.2190
  14   1.0000      -0.182593        -4.9686
  15   1.0000      -0.173894        -4.7319
  16   1.0000      -0.171137        -4.6569
  17   0.0000      -0.128921        -3.5081
  18   0.0000      -0.115755        -3.1499
  19   0.0000      -0.101298        -2.7565
  20   0.0000      -0.020995        -0.5713
  21   0.0000      -0.016850        -0.4585

MULLIKEN ATOMIC CHARGES AND SPIN POPULATIONS
--------------------------------------------
   0 Co:    0.591505    1.946164
   1 F :   -0.591505    0.053836
Sum of atomic charges         :   -0.0000000

LOEWDIN ATOMIC CHARGES AND SPIN POPULATIONS
-------------------------------------------
   0 Co:    0.414697    1.931643
   1 F :   -0.414697    0.068357

  Mayer bond orders larger than 0.100000
B(  0-Co,  1-F ) :   0.8366

Dispersion correction           -0.000530050
FINAL SINGLE POINT ENERGY     -1482.736605213496

DIPOLE MOMENT
-------------
                                X             Y             Z
Electronic contribution:      0.00000      -0.00000      -2.44370
Nuclear contribution   :      0.00000       0.00000       0.74078
                        -----------------------------------------
Total Dipole Moment    :      0.00000      -0.00000      -1.70292
                        -----------------------------------------
Magnitude (a.u.)       :      1.70292
Magnitude (Debye)      :      4.32848

Rotational constants in cm-1:     0.000000     0.381744     0.381744
Rotational constants in MHz :     0.000000 11444.406260 11444.406260

                             ****ORCA TERMINATED NORMALLY****
TOTAL RUN TIME: 0 days 0 hours 1 minutes 19 seconds 118 msec
