                         Program Version 4.2.0 -  RELEASE  -
|  1> #
|  2> # 39_CoCl tpss/aug-cc-pvtz
|  3> #
|  4> ! tpss d3bj aug-cc-pvtz def2/j opt xyzfile
|  5>
|  6> *xyz 0 3
|  7> Co 0.0 0.0 0.0
|  8> Cl 0.0 0.0 2.0
|  9> *
| 10>
| 11> %pal
| 12> nprocs 24
| 13> end
| 14>
| 15>
| 16>                          ****END OF INPUT****
 Total Charge           Charge          ....    0
 Multiplicity           Mult            ....    3
 Number of Electrons    NEL             ....   44
Dispersion correction           -0.001454687
FINAL SINGLE POINT ENERGY     -1843.116398842721
Dispersion correction            ... done
Dispersion correction           -0.001455125
FINAL SINGLE POINT ENERGY     -1843.116892919786
Dispersion correction            ... done
Dispersion correction           -0.001459890
FINAL SINGLE POINT ENERGY     -1843.118521850382
Dispersion correction            ... done
Dispersion correction           -0.001461377
FINAL SINGLE POINT ENERGY     -1843.118574147105
Dispersion correction            ... done
Dispersion correction           -0.001461681
FINAL SINGLE POINT ENERGY     -1843.118571585571
Dispersion correction            ... done
                    ***********************HURRAY********************

CARTESIAN COORDINATES (ANGSTROEM)
---------------------------------
  Co     0.000000    0.000000   -0.044916
  Cl     0.000000    0.000000    2.044916

 Multiplicity           Mult            ....    3
 Number of Electrons    NEL             ....   44
 Basis Dimension        Dim             ....  143

ORBITAL ENERGIES
----------------
                 SPIN UP ORBITALS
  NO   OCC          E(Eh)            E(eV)
   0   1.0000    -276.650996     -7528.0563
   1   1.0000    -100.982844     -2747.8829
   2   1.0000     -32.426468      -882.3691
   3   1.0000     -28.085185      -764.2367
   4   1.0000     -28.081383      -764.1333
   5   1.0000     -28.079522      -764.0826
   6   1.0000      -9.209166      -250.5942
   7   1.0000      -6.986512      -190.1127
   8   1.0000      -6.983324      -190.0259
   9   1.0000      -6.981942      -189.9883
  10   1.0000      -3.613709       -98.3340
  11   1.0000      -2.320825       -63.1529
  12   1.0000      -2.320404       -63.1414
  13   1.0000      -2.310936       -62.8838
  14   1.0000      -0.712289       -19.3824
  15   1.0000      -0.323235        -8.7957
  16   1.0000      -0.291080        -7.9207
  17   1.0000      -0.277250        -7.5444
  18   1.0000      -0.248304        -6.7567
  19   1.0000      -0.229596        -6.2476
  20   1.0000      -0.212985        -5.7956
  21   1.0000      -0.206843        -5.6285
  22   1.0000      -0.201013        -5.4698
  23   0.0000      -0.134243        -3.6529
  24   0.0000      -0.025217        -0.6862
  25   0.0000      -0.024050        -0.6544
  26   0.0000       0.006413         0.1745
  27   0.0000       0.007792         0.2120

                 SPIN DOWN ORBITALS
  NO   OCC          E(Eh)            E(eV)
   0   1.0000    -276.650578     -7528.0449
   1   1.0000    -100.982647     -2747.8775
   2   1.0000     -32.393342      -881.4676
   3   1.0000     -28.057370      -763.4798
   4   1.0000     -28.055395      -763.4261
   5   1.0000     -28.052702      -763.3528
   6   1.0000      -9.208982      -250.5891
   7   1.0000      -6.986803      -190.1206
   8   1.0000      -6.982291      -189.9978
   9   1.0000      -6.981895      -189.9870
  10   1.0000      -3.530763       -96.0770
  11   1.0000      -2.239281       -60.9339
  12   1.0000      -2.231720       -60.7282
  13   1.0000      -2.231343       -60.7179
  14   1.0000      -0.710893       -19.3444
  15   1.0000      -0.314771        -8.5654
  16   1.0000      -0.271321        -7.3830
  17   1.0000      -0.266441        -7.2502
  18   1.0000      -0.183472        -4.9925
  19   1.0000      -0.178579        -4.8594
  20   1.0000      -0.173165        -4.7121
  21   0.0000      -0.125294        -3.4094
  22   0.0000      -0.118215        -3.2168
  23   0.0000      -0.106261        -2.8915
  24   0.0000      -0.021512        -0.5854
  25   0.0000      -0.017504        -0.4763

MULLIKEN ATOMIC CHARGES AND SPIN POPULATIONS
--------------------------------------------
   0 Co:    0.460827    1.972531
   1 Cl:   -0.460827    0.027469
Sum of atomic charges         :   -0.0000000

LOEWDIN ATOMIC CHARGES AND SPIN POPULATIONS
-------------------------------------------
   0 Co:    0.055198    1.938310
   1 Cl:   -0.055198    0.061690

  Mayer bond orders larger than 0.100000
B(  0-Co,  1-Cl) :   1.1591

Dispersion correction           -0.001461690
FINAL SINGLE POINT ENERGY     -1843.118571113129

DIPOLE MOMENT
-------------
                                X             Y             Z
Electronic contribution:      0.00000       0.00000      -3.66679
Nuclear contribution   :      0.00000       0.00000       1.86529
                        -----------------------------------------
Total Dipole Moment    :      0.00000       0.00000      -1.80150
                        -----------------------------------------
Magnitude (a.u.)       :      1.80150
Magnitude (Debye)      :      4.57905

Rotational constants in cm-1:     0.000000     0.174373     0.174373
Rotational constants in MHz :     0.000000  5227.567081  5227.567081

                             ****ORCA TERMINATED NORMALLY****
TOTAL RUN TIME: 0 days 0 hours 1 minutes 4 seconds 994 msec
