                         Program Version 4.2.0 -  RELEASE  -
|  1> #
|  2> # 40_CoBr tpss/aug-cc-pvtz
|  3> #
|  4> ! tpss d3bj aug-cc-pvtz def2/j opt xyzfile
|  5>
|  6> *xyz 0 3
|  7> Co 0.0 0.0 0.0
|  8> Br 0.0 0.0 2.0
|  9> *
| 10>
| 11> %pal
| 12> nprocs 24
| 13> end
| 14>
| 15>
| 16>                          ****END OF INPUT****
 Total Charge           Charge          ....    0
 Multiplicity           Mult            ....    3
 Number of Electrons    NEL             ....   62
Dispersion correction           -0.001632819
FINAL SINGLE POINT ENERGY     -3956.968209234620
Dispersion correction            ... done
Dispersion correction           -0.001632759
FINAL SINGLE POINT ENERGY     -3956.970576614293
Dispersion correction            ... done
Dispersion correction           -0.001634118
FINAL SINGLE POINT ENERGY     -3956.979662670038
Dispersion correction            ... done
FINAL SINGLE POINT ENERGY     -3956.980744189569
Dispersion correction            ... done
Dispersion correction           -0.001637701
FINAL SINGLE POINT ENERGY     -3956.980861840399
Dispersion correction            ... done
Dispersion correction           -0.001637984
FINAL SINGLE POINT ENERGY     -3956.980865455530
Dispersion correction            ... done
                    ***********************HURRAY********************

CARTESIAN COORDINATES (ANGSTROEM)
---------------------------------
  Co     0.000000    0.000000   -0.103279
  Br     0.000000    0.000000    2.103279

 Multiplicity           Mult            ....    3
 Number of Electrons    NEL             ....   62
 Basis Dimension        Dim             ....  152

ORBITAL ENERGIES
----------------
                 SPIN UP ORBITALS
  NO   OCC          E(Eh)            E(eV)
   0   1.0000    -481.713289    -13108.0850
   1   1.0000    -276.636820     -7527.6706
   2   1.0000     -61.925977     -1685.0915
   3   1.0000     -55.759944     -1517.3052
   4   1.0000     -55.758140     -1517.2561
   5   1.0000     -55.758140     -1517.2561
   6   1.0000     -32.409973      -881.9202
   7   1.0000     -28.085840      -764.2545
   8   1.0000     -28.055619      -763.4322
   9   1.0000     -28.055619      -763.4322
  10   1.0000      -8.452508      -230.0044
  11   1.0000      -6.291872      -171.2105
  12   1.0000      -6.287890      -171.1022
  13   1.0000      -6.287890      -171.1022
  14   1.0000      -3.597891       -97.9036
  15   1.0000      -2.461050       -66.9686
  16   1.0000      -2.459555       -66.9279
  17   1.0000      -2.459555       -66.9279
  18   1.0000      -2.456610       -66.8477
  19   1.0000      -2.456329       -66.8401
  20   1.0000      -2.346885       -63.8620
  21   1.0000      -2.278600       -62.0038
  22   1.0000      -2.278600       -62.0038
  23   1.0000      -0.682696       -18.5771
  24   1.0000      -0.311313        -8.4713
  25   1.0000      -0.278528        -7.5791
  26   1.0000      -0.278528        -7.5791
  27   1.0000      -0.222754        -6.0614
  28   1.0000      -0.222754        -6.0614
  29   1.0000      -0.203619        -5.5408
  30   1.0000      -0.185075        -5.0361
  31   1.0000      -0.184751        -5.0273
  32   0.0000      -0.132508        -3.6057
  33   0.0000      -0.020753        -0.5647
  34   0.0000      -0.020753        -0.5647
  35   0.0000       0.005249         0.1428
  36   0.0000       0.006856         0.1866

                 SPIN DOWN ORBITALS
  NO   OCC          E(Eh)            E(eV)
   0   1.0000    -481.713075    -13108.0792
   1   1.0000    -276.636438     -7527.6602
   2   1.0000     -61.925901     -1685.0894
   3   1.0000     -55.759930     -1517.3048
   4   1.0000     -55.757864     -1517.2486
   5   1.0000     -55.757864     -1517.2486
   6   1.0000     -32.377566      -881.0384
   7   1.0000     -28.051129      -763.3100
   8   1.0000     -28.033578      -762.8324
   9   1.0000     -28.033578      -762.8324
  10   1.0000      -8.452208      -229.9963
  11   1.0000      -6.291851      -171.2100
  12   1.0000      -6.287387      -171.0885
  13   1.0000      -6.287387      -171.0885
  14   1.0000      -3.516564       -95.6906
  15   1.0000      -2.460872       -66.9637
  16   1.0000      -2.459258       -66.9198
  17   1.0000      -2.459258       -66.9198
  18   1.0000      -2.455876       -66.8278
  19   1.0000      -2.455596       -66.8202
  20   1.0000      -2.239271       -60.9337
  21   1.0000      -2.210784       -60.1585
  22   1.0000      -2.210784       -60.1585
  23   1.0000      -0.679629       -18.4936
  24   1.0000      -0.305024        -8.3001
  25   1.0000      -0.253461        -6.8970
  26   1.0000      -0.253461        -6.8970
  27   1.0000      -0.189486        -5.1562
  28   1.0000      -0.143465        -3.9039
  29   1.0000      -0.143319        -3.8999
  30   0.0000      -0.118048        -3.2122
  31   0.0000      -0.118048        -3.2122
  32   0.0000      -0.114462        -3.1147
  33   0.0000      -0.017668        -0.4808
  34   0.0000      -0.017668        -0.4808

MULLIKEN ATOMIC CHARGES AND SPIN POPULATIONS
--------------------------------------------
   0 Co:    0.410457    1.919252
   1 Br:   -0.410457    0.080748
Sum of atomic charges         :   -0.0000000

LOEWDIN ATOMIC CHARGES AND SPIN POPULATIONS
-------------------------------------------
   0 Co:   -0.102447    1.860494
   1 Br:    0.102447    0.139506

  Mayer bond orders larger than 0.100000
B(  0-Co,  1-Br) :   1.3134

Dispersion correction           -0.001638002
FINAL SINGLE POINT ENERGY     -3956.980864154376

DIPOLE MOMENT
-------------
                                X             Y             Z
Electronic contribution:      0.00000       0.00000       1.10097
Nuclear contribution   :      0.00000       0.00000      -2.84584
                        -----------------------------------------
Total Dipole Moment    :      0.00000       0.00000      -1.74486
                        -----------------------------------------
Magnitude (a.u.)       :      1.74486
Magnitude (Debye)      :      4.43509

Rotational constants in cm-1:     0.000000     0.102086     0.102086
Rotational constants in MHz :     0.000000  3060.463500  3060.463500

                             ****ORCA TERMINATED NORMALLY****
TOTAL RUN TIME: 0 days 0 hours 1 minutes 34 seconds 145 msec
