                         Program Version 4.2.0 -  RELEASE  -
|  1> #
|  2> # 41_CoO tpss/aug-cc-pvtz
|  3> #
|  4> ! tpss d3bj aug-cc-pvtz def2/j opt xyzfile
|  5>
|  6> *xyz 0 4
|  7> Co 0.0 0.0 0.0
|  8> O 0.0 0.0 2.0
|  9> *
| 10>
| 11> %pal
| 12> nprocs 24
| 13> end
| 14>
| 15>
| 16>                          ****END OF INPUT****
 Total Charge           Charge          ....    0
 Multiplicity           Mult            ....    4
 Number of Electrons    NEL             ....   35
Dispersion correction           -0.000904704
FINAL SINGLE POINT ENERGY     -1458.023345234074   (Wavefunction not fully converged!)
Dispersion correction            ... done
Dispersion correction           -0.000805853
FINAL SINGLE POINT ENERGY     -1458.035572669926
Dispersion correction            ... done
Dispersion correction           -0.000726217
FINAL SINGLE POINT ENERGY     -1458.059458438428
Dispersion correction            ... done
FINAL SINGLE POINT ENERGY     -1458.069113656340
Dispersion correction            ... done
Dispersion correction           -0.000715529
FINAL SINGLE POINT ENERGY     -1458.069288940919
Dispersion correction            ... done
Dispersion correction           -0.000715333
FINAL SINGLE POINT ENERGY     -1458.069318969976
Dispersion correction            ... done
                    ***********************HURRAY********************

CARTESIAN COORDINATES (ANGSTROEM)
---------------------------------
  Co     0.000000    0.000000    0.187226
  O      0.000000    0.000000    1.812774

 Multiplicity           Mult            ....    4
 Number of Electrons    NEL             ....   35
 Basis Dimension        Dim             ....  139

ORBITAL ENERGIES
----------------
                 SPIN UP ORBITALS
  NO   OCC          E(Eh)            E(eV)
   0   1.0000    -276.707268     -7529.5876
   1   1.0000     -32.502307      -884.4327
   2   1.0000     -28.162302      -766.3352
   3   1.0000     -28.157897      -766.2153
   4   1.0000     -28.149929      -765.9985
   5   1.0000     -18.899170      -514.2726
   6   1.0000      -3.683987      -100.2464
   7   1.0000      -2.395076       -65.1733
   8   1.0000      -2.393528       -65.1312
   9   1.0000      -2.368711       -64.4559
  10   1.0000      -0.850497       -23.1432
  11   1.0000      -0.349983        -9.5235
  12   1.0000      -0.347164        -9.4468
  13   1.0000      -0.339174        -9.2294
  14   1.0000      -0.300306        -8.1717
  15   1.0000      -0.263314        -7.1651
  16   1.0000      -0.235332        -6.4037
  17   1.0000      -0.227676        -6.1954
  18   1.0000      -0.216457        -5.8901
  19   0.0000      -0.136076        -3.7028
  20   0.0000      -0.026555        -0.7226
  21   0.0000      -0.021413        -0.5827
  22   0.0000       0.005218         0.1420
  23   0.0000       0.010602         0.2885

                 SPIN DOWN ORBITALS
  NO   OCC          E(Eh)            E(eV)
   0   1.0000    -276.706547     -7529.5680
   1   1.0000     -32.462108      -883.3389
   2   1.0000     -28.126423      -765.3589
   3   1.0000     -28.125257      -765.3271
   4   1.0000     -28.120413      -765.1953
   5   1.0000     -18.880332      -513.7599
   6   1.0000      -3.586811       -97.6021
   7   1.0000      -2.300212       -62.5919
   8   1.0000      -2.288049       -62.2610
   9   1.0000      -2.278338       -61.9967
  10   1.0000      -0.809404       -22.0250
  11   1.0000      -0.320817        -8.7299
  12   1.0000      -0.272865        -7.4250
  13   1.0000      -0.266280        -7.2458
  14   1.0000      -0.230283        -6.2663
  15   1.0000      -0.187949        -5.1144
  16   0.0000      -0.162890        -4.4325
  17   0.0000      -0.150358        -4.0914
  18   0.0000      -0.136617        -3.7175
  19   0.0000      -0.108904        -2.9634
  20   0.0000      -0.013852        -0.3769

MULLIKEN ATOMIC CHARGES AND SPIN POPULATIONS
--------------------------------------------
   0 Co:    0.517659    2.248368
   1 O :   -0.517659    0.751632
Sum of atomic charges         :   -0.0000000

LOEWDIN ATOMIC CHARGES AND SPIN POPULATIONS
-------------------------------------------
   0 Co:    0.540060    2.317595
   1 O :   -0.540060    0.682405

  Mayer bond orders larger than 0.100000
B(  0-Co,  1-O ) :   2.0490

Dispersion correction           -0.000715325
FINAL SINGLE POINT ENERGY     -1458.069317809025

DIPOLE MOMENT
-------------
                                X             Y             Z
Electronic contribution:     -0.00000       0.00000      -3.28847
Nuclear contribution   :      0.00000       0.00000       1.61802
                        -----------------------------------------
Total Dipole Moment    :     -0.00000       0.00000      -1.67045
                        -----------------------------------------
Magnitude (a.u.)       :      1.67045
Magnitude (Debye)      :      4.24595

Rotational constants in cm-1:     0.000000     0.507011     0.507011
Rotational constants in MHz :     0.000000 15199.819890 15199.819890

                             ****ORCA TERMINATED NORMALLY****
TOTAL RUN TIME: 0 days 0 hours 1 minutes 55 seconds 311 msec
