                         Program Version 4.2.0 -  RELEASE  -
|  1> #
|  2> # 42_CoS tpss/aug-cc-pvtz
|  3> #
|  4> ! tpss d3bj aug-cc-pvtz def2/j opt xyzfile
|  5>
|  6> *xyz 0 4
|  7> Co 0.0 0.0 0.0
|  8> S 0.0 0.0 2.0
|  9> *
| 10>
| 11> %pal
| 12> nprocs 24
| 13> end
| 14>
| 15>
| 16>                          ****END OF INPUT****
 Total Charge           Charge          ....    0
 Multiplicity           Mult            ....    4
 Number of Electrons    NEL             ....   43
Dispersion correction           -0.001651612
FINAL SINGLE POINT ENERGY     -1781.088693753637
Dispersion correction            ... done
Dispersion correction           -0.001651544
FINAL SINGLE POINT ENERGY     -1781.088719026269
Dispersion correction            ... done
Dispersion correction           -0.001651075
FINAL SINGLE POINT ENERGY     -1781.088806050592
Dispersion correction            ... done
Dispersion correction           -0.001651092
FINAL SINGLE POINT ENERGY     -1781.088809924991
Dispersion correction            ... done
                    ***********************HURRAY********************

CARTESIAN COORDINATES (ANGSTROEM)
---------------------------------
  Co     0.000000    0.000000    0.009201
  S      0.000000    0.000000    1.990799

 Multiplicity           Mult            ....    4
 Number of Electrons    NEL             ....   43
 Basis Dimension        Dim             ....  143

ORBITAL ENERGIES
----------------
                 SPIN UP ORBITALS
  NO   OCC          E(Eh)            E(eV)
   0   1.0000    -276.695425     -7529.2653
   1   1.0000     -88.373437     -2404.7635
   2   1.0000     -32.484729      -883.9544
   3   1.0000     -28.142097      -765.7854
   4   1.0000     -28.142097      -765.7854
   5   1.0000     -28.133990      -765.5648
   6   1.0000      -7.726684      -210.2538
   7   1.0000      -5.706097      -155.2708
   8   1.0000      -5.706097      -155.2708
   9   1.0000      -5.703655      -155.2043
  10   1.0000      -3.668097       -99.8140
  11   1.0000      -2.373467       -64.5853
  12   1.0000      -2.373467       -64.5853
  13   1.0000      -2.364080       -64.3299
  14   1.0000      -0.614595       -16.7240
  15   1.0000      -0.306751        -8.3471
  16   1.0000      -0.305836        -8.3222
  17   1.0000      -0.305836        -8.3222
  18   1.0000      -0.298559        -8.1242
  19   1.0000      -0.256782        -6.9874
  20   1.0000      -0.222770        -6.0619
  21   1.0000      -0.213015        -5.7964
  22   1.0000      -0.213015        -5.7964
  23   0.0000      -0.129613        -3.5269
  24   0.0000      -0.025576        -0.6960
  25   0.0000      -0.025576        -0.6960
  26   0.0000       0.004721         0.1285
  27   0.0000       0.006392         0.1739

                 SPIN DOWN ORBITALS
  NO   OCC          E(Eh)            E(eV)
   0   1.0000    -276.694794     -7529.2481
   1   1.0000     -88.370108     -2404.6729
   2   1.0000     -32.445690      -882.8921
   3   1.0000     -28.108742      -764.8777
   4   1.0000     -28.108742      -764.8777
   5   1.0000     -28.105561      -764.7912
   6   1.0000      -7.723684      -210.1721
   7   1.0000      -5.702500      -155.1729
   8   1.0000      -5.699973      -155.1042
   9   1.0000      -5.699973      -155.1042
  10   1.0000      -3.572727       -97.2188
  11   1.0000      -2.280191       -62.0472
  12   1.0000      -2.272526       -61.8386
  13   1.0000      -2.272526       -61.8386
  14   1.0000      -0.590897       -16.0791
  15   1.0000      -0.285625        -7.7723
  16   1.0000      -0.235819        -6.4170
  17   1.0000      -0.235819        -6.4170
  18   1.0000      -0.227948        -6.2028
  19   1.0000      -0.194568        -5.2945
  20   0.0000      -0.155843        -4.2407
  21   0.0000      -0.146782        -3.9941
  22   0.0000      -0.146782        -3.9941
  23   0.0000      -0.106881        -2.9084
  24   0.0000      -0.013600        -0.3701

MULLIKEN ATOMIC CHARGES AND SPIN POPULATIONS
--------------------------------------------
   0 Co:    0.268320    2.271261
   1 S :   -0.268320    0.728739
Sum of atomic charges         :   -0.0000000

LOEWDIN ATOMIC CHARGES AND SPIN POPULATIONS
-------------------------------------------
   0 Co:    0.035357    2.323655
   1 S :   -0.035357    0.676345

  Mayer bond orders larger than 0.100000
B(  0-Co,  1-S ) :   2.3725

Dispersion correction           -0.001651092
FINAL SINGLE POINT ENERGY     -1781.088809514280

DIPOLE MOMENT
-------------
                                X             Y             Z
Electronic contribution:     -0.00000       0.00000      -4.84490
Nuclear contribution   :      0.00000       0.00000       3.17962
                        -----------------------------------------
Total Dipole Moment    :     -0.00000       0.00000      -1.66528
                        -----------------------------------------
Magnitude (a.u.)       :      1.66528
Magnitude (Debye)      :      4.23281

Rotational constants in cm-1:     0.000000     0.206757     0.206757
Rotational constants in MHz :     0.000000  6198.412278  6198.412278

                             ****ORCA TERMINATED NORMALLY****
TOTAL RUN TIME: 0 days 0 hours 0 minutes 58 seconds 24 msec
