                         Program Version 4.2.0 -  RELEASE  -
|  1> #
|  2> # 43_NiH tpss/aug-cc-pvtz
|  3> #
|  4> ! tpss d3bj aug-cc-pvtz def2/j opt xyzfile
|  5>
|  6> *xyz 0 2
|  7> Ni 0.0 0.0 0.0
|  8> H 0.0 0.0 2.0
|  9> *
| 10>
| 11> %pal
| 12> nprocs 24
| 13> end
| 14>
| 15>
| 16>                          ****END OF INPUT****
 Total Charge           Charge          ....    0
 Multiplicity           Mult            ....    2
 Number of Electrons    NEL             ....   29
Dispersion correction           -0.001104819
FINAL SINGLE POINT ENERGY     -1508.925982236414
Dispersion correction            ... done
Dispersion correction           -0.001031524
FINAL SINGLE POINT ENERGY     -1508.939351525438
Dispersion correction            ... done
Dispersion correction           -0.000770639
FINAL SINGLE POINT ENERGY     -1508.950600285478
Dispersion correction            ... done
FINAL SINGLE POINT ENERGY     -1508.956849371555
FINAL SINGLE POINT ENERGY     -1508.957023350794
Dispersion correction            ... done
Dispersion correction           -0.000526725
FINAL SINGLE POINT ENERGY     -1508.957069305813
Dispersion correction            ... done
Dispersion correction           -0.000525984
FINAL SINGLE POINT ENERGY     -1508.957070072922
Dispersion correction            ... done
                    ***********************HURRAY********************

CARTESIAN COORDINATES (ANGSTROEM)
---------------------------------
  Ni     0.000000    0.000000    0.253391
  H      0.000000    0.000000    1.746609

 Multiplicity           Mult            ....    2
 Number of Electrons    NEL             ....   29
 Basis Dimension        Dim             ....  116

ORBITAL ENERGIES
----------------
                 SPIN UP ORBITALS
  NO   OCC          E(Eh)            E(eV)
   0   1.0000    -298.893997     -8133.3192
   1   1.0000     -35.293056      -960.3729
   2   1.0000     -30.749263      -836.7300
   3   1.0000     -30.718734      -835.8993
   4   1.0000     -30.718731      -835.8992
   5   1.0000      -3.826707      -104.1300
   6   1.0000      -2.477615       -67.4193
   7   1.0000      -2.414141       -65.6921
   8   1.0000      -2.414132       -65.6919
   9   1.0000      -0.280859        -7.6426
  10   1.0000      -0.195189        -5.3114
  11   1.0000      -0.179026        -4.8715
  12   1.0000      -0.179023        -4.8715
  13   1.0000      -0.155751        -4.2382
  14   1.0000      -0.155678        -4.2362
  15   0.0000      -0.091725        -2.4960
  16   0.0000      -0.023691        -0.6447
  17   0.0000      -0.023689        -0.6446
  18   0.0000       0.008806         0.2396
  19   0.0000       0.019861         0.5404

                 SPIN DOWN ORBITALS
  NO   OCC          E(Eh)            E(eV)
   0   1.0000    -298.893540     -8133.3067
   1   1.0000     -35.279713      -960.0098
   2   1.0000     -30.731956      -836.2590
   3   1.0000     -30.711136      -835.6925
   4   1.0000     -30.711135      -835.6925
   5   1.0000      -3.794503      -103.2537
   6   1.0000      -2.416538       -65.7573
   7   1.0000      -2.396769       -65.2194
   8   1.0000      -2.396765       -65.2193
   9   1.0000      -0.268234        -7.2990
  10   1.0000      -0.169540        -4.6134
  11   1.0000      -0.169534        -4.6133
  12   1.0000      -0.131365        -3.5746
  13   1.0000      -0.131328        -3.5736
  14   0.0000      -0.127943        -3.4815
  15   0.0000      -0.078114        -2.1256
  16   0.0000      -0.012300        -0.3347
  17   0.0000      -0.012299        -0.3347
  18   0.0000       0.013642         0.3712

MULLIKEN ATOMIC CHARGES AND SPIN POPULATIONS
--------------------------------------------
   0 Ni:   -0.008677    1.020110
   1 H :    0.008677   -0.020110
Sum of atomic charges         :   -0.0000000

LOEWDIN ATOMIC CHARGES AND SPIN POPULATIONS
-------------------------------------------
   0 Ni:    0.552433    0.959223
   1 H :   -0.552433    0.040777

  Mayer bond orders larger than 0.100000
B(  0-Ni,  1-H ) :   1.0644

Dispersion correction           -0.000525958
FINAL SINGLE POINT ENERGY     -1508.957070126393

DIPOLE MOMENT
-------------
                                X             Y             Z
Electronic contribution:     -0.00000       0.00000      -2.46186
Nuclear contribution   :      0.00000       0.00000       1.44028
                        -----------------------------------------
Total Dipole Moment    :     -0.00000       0.00000      -1.02158
                        -----------------------------------------
Magnitude (a.u.)       :      1.02158
Magnitude (Debye)      :      2.59664

Rotational constants in cm-1:     0.000000     7.629300     7.629300
Rotational constants in MHz :     0.000000 228720.664008 228720.664008

                             ****ORCA TERMINATED NORMALLY****
TOTAL RUN TIME: 0 days 0 hours 1 minutes 34 seconds 528 msec
