                         Program Version 4.2.0 -  RELEASE  -
|  1> #
|  2> # 44_NiF tpss/aug-cc-pvtz
|  3> #
|  4> ! tpss d3bj aug-cc-pvtz def2/j opt xyzfile
|  5>
|  6> *xyz 0 2
|  7> Ni 0.0 0.0 0.0
|  8> F 0.0 0.0 2.0
|  9> *
| 10>
| 11> %pal
| 12> nprocs 24
| 13> end
| 14>
| 15>
| 16>                          ****END OF INPUT****
 Total Charge           Charge          ....    0
 Multiplicity           Mult            ....    2
 Number of Electrons    NEL             ....   37
Dispersion correction           -0.000697876
FINAL SINGLE POINT ENERGY     -1608.272684217862
Dispersion correction            ... done
Dispersion correction           -0.000651838
FINAL SINGLE POINT ENERGY     -1608.277015588828
Dispersion correction            ... done
Dispersion correction           -0.000559109
FINAL SINGLE POINT ENERGY     -1608.286815219631
Dispersion correction            ... done
FINAL SINGLE POINT ENERGY     -1608.287014581974
Dispersion correction            ... done
Dispersion correction           -0.000551905
FINAL SINGLE POINT ENERGY     -1608.287391799249
Dispersion correction            ... done
Dispersion correction           -0.000551434
FINAL SINGLE POINT ENERGY     -1608.287397335343
Dispersion correction            ... done
                    ***********************HURRAY********************

CARTESIAN COORDINATES (ANGSTROEM)
---------------------------------
  Ni     0.000000    0.000000    0.123747
  F      0.000000    0.000000    1.876253

 Multiplicity           Mult            ....    2
 Number of Electrons    NEL             ....   37
 Basis Dimension        Dim             ....  139

ORBITAL ENERGIES
----------------
                 SPIN UP ORBITALS
  NO   OCC          E(Eh)            E(eV)
   0   1.0000    -298.918484     -8133.9855
   1   1.0000     -35.315068      -960.9718
   2   1.0000     -30.769258      -837.2741
   3   1.0000     -30.741684      -836.5238
   4   1.0000     -30.741684      -836.5237
   5   1.0000     -24.323347      -661.8719
   6   1.0000      -3.853975      -104.8720
   7   1.0000      -2.505956       -68.1905
   8   1.0000      -2.441147       -66.4270
   9   1.0000      -2.441146       -66.4270
  10   1.0000      -0.996326       -27.1114
  11   1.0000      -0.345423        -9.3994
  12   1.0000      -0.297003        -8.0819
  13   1.0000      -0.297003        -8.0819
  14   1.0000      -0.217362        -5.9147
  15   1.0000      -0.186081        -5.0635
  16   1.0000      -0.186081        -5.0635
  17   1.0000      -0.181939        -4.9508
  18   1.0000      -0.181892        -4.9495
  19   0.0000      -0.131269        -3.5720
  20   0.0000      -0.018125        -0.4932
  21   0.0000      -0.018125        -0.4932
  22   0.0000       0.006959         0.1894
  23   0.0000       0.013189         0.3589

                 SPIN DOWN ORBITALS
  NO   OCC          E(Eh)            E(eV)
   0   1.0000    -298.918048     -8133.9736
   1   1.0000     -35.300766      -960.5827
   2   1.0000     -30.750768      -836.7709
   3   1.0000     -30.733488      -836.3007
   4   1.0000     -30.733488      -836.3007
   5   1.0000     -24.323230      -661.8687
   6   1.0000      -3.819486      -103.9335
   7   1.0000      -2.440967       -66.4221
   8   1.0000      -2.422369       -65.9160
   9   1.0000      -2.422369       -65.9160
  10   1.0000      -0.995894       -27.0997
  11   1.0000      -0.333478        -9.0744
  12   1.0000      -0.295345        -8.0368
  13   1.0000      -0.295345        -8.0367
  14   1.0000      -0.177390        -4.8270
  15   1.0000      -0.177389        -4.8270
  16   1.0000      -0.156999        -4.2722
  17   1.0000      -0.156996        -4.2721
  18   0.0000      -0.146793        -3.9944
  19   0.0000      -0.108676        -2.9572
  20   0.0000      -0.010079        -0.2743
  21   0.0000      -0.010079        -0.2743
  22   0.0000       0.010028         0.2729

MULLIKEN ATOMIC CHARGES AND SPIN POPULATIONS
--------------------------------------------
   0 Ni:    0.611361    0.968769
   1 F :   -0.611361    0.031231
Sum of atomic charges         :    0.0000000

LOEWDIN ATOMIC CHARGES AND SPIN POPULATIONS
-------------------------------------------
   0 Ni:    0.433556    0.959080
   1 F :   -0.433556    0.040920

  Mayer bond orders larger than 0.100000
B(  0-Ni,  1-F ) :   0.7222

Dispersion correction           -0.000551391
FINAL SINGLE POINT ENERGY     -1608.287395460369

DIPOLE MOMENT
-------------
                                X             Y             Z
Electronic contribution:      0.00000      -0.00000      -1.60517
Nuclear contribution   :      0.00000       0.00000      -0.15532
                        -----------------------------------------
Total Dipole Moment    :      0.00000      -0.00000      -1.76049
                        -----------------------------------------
Magnitude (a.u.)       :      1.76049
Magnitude (Debye)      :      4.47482

Rotational constants in cm-1:     0.000000     0.382421     0.382421
Rotational constants in MHz :     0.000000 11464.697327 11464.697327

                             ****ORCA TERMINATED NORMALLY****
TOTAL RUN TIME: 0 days 0 hours 1 minutes 12 seconds 945 msec
