                         Program Version 4.2.0 -  RELEASE  -
|  1> #
|  2> # 45_NiCl tpss/aug-cc-pvtz
|  3> #
|  4> ! tpss d3bj aug-cc-pvtz def2/j opt xyzfile
|  5>
|  6> *xyz 0 2
|  7> Ni 0.0 0.0 0.0
|  8> Cl 0.0 0.0 2.0
|  9> *
| 10>
| 11> %pal
| 12> nprocs 24
| 13> end
| 14>
| 15>
| 16>                          ****END OF INPUT****
 Total Charge           Charge          ....    0
 Multiplicity           Mult            ....    2
 Number of Electrons    NEL             ....   45
Dispersion correction           -0.001522651
FINAL SINGLE POINT ENERGY     -1968.667850019445
Dispersion correction            ... done
Dispersion correction           -0.001523666
FINAL SINGLE POINT ENERGY     -1968.668373864542
Dispersion correction            ... done
Dispersion correction           -0.001533974
FINAL SINGLE POINT ENERGY     -1968.670104275921
Dispersion correction            ... done
Dispersion correction           -0.001537303
FINAL SINGLE POINT ENERGY     -1968.670157403317
Dispersion correction            ... done
Dispersion correction           -0.001538080
FINAL SINGLE POINT ENERGY     -1968.670157504420
Dispersion correction            ... done
                    ***********************HURRAY********************

CARTESIAN COORDINATES (ANGSTROEM)
---------------------------------
  Ni     0.000000    0.000000   -0.046724
  Cl     0.000000    0.000000    2.046724

 Multiplicity           Mult            ....    2
 Number of Electrons    NEL             ....   45
 Basis Dimension        Dim             ....  143

ORBITAL ENERGIES
----------------
                 SPIN UP ORBITALS
  NO   OCC          E(Eh)            E(eV)
   0   1.0000    -298.928798     -8134.2661
   1   1.0000    -100.973416     -2747.6263
   2   1.0000     -35.325532      -961.2566
   3   1.0000     -30.780966      -837.5927
   4   1.0000     -30.751439      -836.7892
   5   1.0000     -30.751421      -836.7887
   6   1.0000      -9.199822      -250.3399
   7   1.0000      -6.977847      -189.8769
   8   1.0000      -6.972845      -189.7408
   9   1.0000      -6.972845      -189.7408
  10   1.0000      -3.864687      -105.1635
  11   1.0000      -2.517335       -68.5002
  12   1.0000      -2.451577       -66.7108
  13   1.0000      -2.451536       -66.7097
  14   1.0000      -0.703459       -19.1421
  15   1.0000      -0.322090        -8.7645
  16   1.0000      -0.269115        -7.3230
  17   1.0000      -0.269110        -7.3229
  18   1.0000      -0.235125        -6.3981
  19   1.0000      -0.197952        -5.3865
  20   1.0000      -0.197939        -5.3862
  21   1.0000      -0.191926        -5.2226
  22   1.0000      -0.191567        -5.2128
  23   0.0000      -0.132516        -3.6059
  24   0.0000      -0.021193        -0.5767
  25   0.0000      -0.021188        -0.5765
  26   0.0000       0.006800         0.1850
  27   0.0000       0.008576         0.2334

                 SPIN DOWN ORBITALS
  NO   OCC          E(Eh)            E(eV)
   0   1.0000    -298.928431     -8134.2562
   1   1.0000    -100.973513     -2747.6290
   2   1.0000     -35.310225      -960.8401
   3   1.0000     -30.760965      -837.0484
   4   1.0000     -30.742800      -836.5541
   5   1.0000     -30.742792      -836.5539
   6   1.0000      -9.199910      -250.3423
   7   1.0000      -6.977995      -189.8809
   8   1.0000      -6.972963      -189.7440
   9   1.0000      -6.972962      -189.7440
  10   1.0000      -3.827800      -104.1597
  11   1.0000      -2.449301       -66.6489
  12   1.0000      -2.430804       -66.1455
  13   1.0000      -2.430785       -66.1450
  14   1.0000      -0.703533       -19.1441
  15   1.0000      -0.308790        -8.4026
  16   1.0000      -0.266557        -7.2534
  17   1.0000      -0.266551        -7.2532
  18   1.0000      -0.189960        -5.1691
  19   1.0000      -0.189939        -5.1685
  20   1.0000      -0.166103        -4.5199
  21   1.0000      -0.165793        -4.5114
  22   0.0000      -0.156738        -4.2651
  23   0.0000      -0.117134        -3.1874
  24   0.0000      -0.014075        -0.3830
  25   0.0000      -0.014072        -0.3829
  26   0.0000       0.009065         0.2467

MULLIKEN ATOMIC CHARGES AND SPIN POPULATIONS
--------------------------------------------
   0 Ni:    0.474573    0.964651
   1 Cl:   -0.474573    0.035349
Sum of atomic charges         :    0.0000000

LOEWDIN ATOMIC CHARGES AND SPIN POPULATIONS
-------------------------------------------
   0 Ni:    0.080792    0.967458
   1 Cl:   -0.080792    0.032542

  Mayer bond orders larger than 0.100000
B(  0-Ni,  1-Cl) :   0.9942

Dispersion correction           -0.001538111
FINAL SINGLE POINT ENERGY     -1968.670162140610

DIPOLE MOMENT
-------------
                                X             Y             Z
Electronic contribution:      0.00000      -0.00000      -2.10346
Nuclear contribution   :      0.00000       0.00000       0.21916
                        -----------------------------------------
Total Dipole Moment    :      0.00000      -0.00000      -1.88430
                        -----------------------------------------
Magnitude (a.u.)       :      1.88430
Magnitude (Debye)      :      4.78950

Rotational constants in cm-1:     0.000000     0.174027     0.174027
Rotational constants in MHz :     0.000000  5217.185595  5217.185595

                             ****ORCA TERMINATED NORMALLY****
TOTAL RUN TIME: 0 days 0 hours 1 minutes 4 seconds 108 msec
