                         Program Version 4.2.0 -  RELEASE  -
|  1> #
|  2> # 46_NiBr tpss/aug-cc-pvtz
|  3> #
|  4> ! tpss d3bj aug-cc-pvtz def2/j opt xyzfile
|  5>
|  6> *xyz 0 2
|  7> Ni 0.0 0.0 0.0
|  8> Br 0.0 0.0 2.0
|  9> *
| 10>
| 11> %pal
| 12> nprocs 24
| 13> end
| 14>
| 15>
| 16>                          ****END OF INPUT****
 Total Charge           Charge          ....    0
 Multiplicity           Mult            ....    2
 Number of Electrons    NEL             ....   63
Dispersion correction           -0.001710908
FINAL SINGLE POINT ENERGY     -4082.538710271182
Dispersion correction            ... done
Dispersion correction           -0.001711050
FINAL SINGLE POINT ENERGY     -4082.540576947923
Dispersion correction            ... done
Dispersion correction           -0.001714842
FINAL SINGLE POINT ENERGY     -4082.547844541320
Dispersion correction            ... done
FINAL SINGLE POINT ENERGY     -4082.548615435000
Dispersion correction            ... done
Dispersion correction           -0.001720424
FINAL SINGLE POINT ENERGY     -4082.548699567889
Dispersion correction            ... done
Dispersion correction           -0.001720713
FINAL SINGLE POINT ENERGY     -4082.548699564745
Dispersion correction            ... done
                    ***********************HURRAY********************

CARTESIAN COORDINATES (ANGSTROEM)
---------------------------------
  Ni     0.000000    0.000000   -0.091446
  Br     0.000000    0.000000    2.091446

 Multiplicity           Mult            ....    2
 Number of Electrons    NEL             ....   63
 Basis Dimension        Dim             ....  152

ORBITAL ENERGIES
----------------
                 SPIN UP ORBITALS
  NO   OCC          E(Eh)            E(eV)
   0   1.0000    -481.716292    -13108.1667
   1   1.0000    -298.942039     -8134.6264
   2   1.0000     -61.928809     -1685.1686
   3   1.0000     -55.762380     -1517.3715
   4   1.0000     -55.761563     -1517.3493
   5   1.0000     -55.760784     -1517.3281
   6   1.0000     -35.344209      -961.7648
   7   1.0000     -30.788351      -837.7936
   8   1.0000     -30.787675      -837.7752
   9   1.0000     -30.762395      -837.0873
  10   1.0000      -8.455323      -230.0810
  11   1.0000      -6.294988      -171.2953
  12   1.0000      -6.291826      -171.2093
  13   1.0000      -6.289251      -171.1392
  14   1.0000      -3.883101      -105.6645
  15   1.0000      -2.517274       -68.4985
  16   1.0000      -2.505635       -68.1818
  17   1.0000      -2.464142       -67.0527
  18   1.0000      -2.463337       -67.0308
  19   1.0000      -2.461443       -66.9793
  20   1.0000      -2.459236       -66.9192
  21   1.0000      -2.458690       -66.9044
  22   1.0000      -2.451146       -66.6991
  23   1.0000      -0.685188       -18.6449
  24   1.0000      -0.315562        -8.5869
  25   1.0000      -0.294039        -8.0012
  26   1.0000      -0.265526        -7.2253
  27   1.0000      -0.236395        -6.4326
  28   1.0000      -0.221154        -6.0179
  29   1.0000      -0.208189        -5.6651
  30   1.0000      -0.201359        -5.4793
  31   1.0000      -0.199990        -5.4420
  32   0.0000      -0.129769        -3.5312
  33   0.0000      -0.021550        -0.5864
  34   0.0000      -0.015954        -0.4341
  35   0.0000       0.005560         0.1513
  36   0.0000       0.008644         0.2352

                 SPIN DOWN ORBITALS
  NO   OCC          E(Eh)            E(eV)
   0   1.0000    -481.716064    -13108.1605
   1   1.0000    -298.941864     -8134.6217
   2   1.0000     -61.928736     -1685.1666
   3   1.0000     -55.762318     -1517.3698
   4   1.0000     -55.761129     -1517.3375
   5   1.0000     -55.760698     -1517.3257
   6   1.0000     -35.326287      -961.2771
   7   1.0000     -30.770138      -837.2980
   8   1.0000     -30.768539      -837.2545
   9   1.0000     -30.756222      -836.9193
  10   1.0000      -8.455011      -230.0726
  11   1.0000      -6.294876      -171.2923
  12   1.0000      -6.291049      -171.1881
  13   1.0000      -6.289076      -171.1345
  14   1.0000      -3.840593      -104.5079
  15   1.0000      -2.465489       -67.0894
  16   1.0000      -2.462761       -67.0151
  17   1.0000      -2.461346       -66.9766
  18   1.0000      -2.459849       -66.9359
  19   1.0000      -2.458561       -66.9008
  20   1.0000      -2.458073       -66.8876
  21   1.0000      -2.453155       -66.7538
  22   1.0000      -2.433080       -66.2075
  23   1.0000      -0.682031       -18.5590
  24   1.0000      -0.311840        -8.4856
  25   1.0000      -0.260823        -7.0973
  26   1.0000      -0.259051        -7.0491
  27   1.0000      -0.215344        -5.8598
  28   1.0000      -0.187117        -5.0917
  29   1.0000      -0.183743        -4.9999
  30   1.0000      -0.174802        -4.7566
  31   0.0000      -0.160744        -4.3741
  32   0.0000      -0.122552        -3.3348
  33   0.0000      -0.020315        -0.5528
  34   0.0000      -0.018584        -0.5057
  35   0.0000       0.005440         0.1480

MULLIKEN ATOMIC CHARGES AND SPIN POPULATIONS
--------------------------------------------
   0 Ni:    0.421203    0.903100
   1 Br:   -0.421203    0.096900
Sum of atomic charges         :    0.0000000

LOEWDIN ATOMIC CHARGES AND SPIN POPULATIONS
-------------------------------------------
   0 Ni:   -0.083531    0.887341
   1 Br:    0.083531    0.112659

  Mayer bond orders larger than 0.100000
B(  0-Ni,  1-Br) :   1.2765

Dispersion correction           -0.001720725
FINAL SINGLE POINT ENERGY     -4082.548698685616

DIPOLE MOMENT
-------------
                                X             Y             Z
Electronic contribution:     -0.00000      -0.00000       3.82646
Nuclear contribution   :      0.00000       0.00000      -5.43759
                        -----------------------------------------
Total Dipole Moment    :     -0.00000      -0.00000      -1.61113
                        -----------------------------------------
Magnitude (a.u.)       :      1.61113
Magnitude (Debye)      :      4.09516

Rotational constants in cm-1:     0.000000     0.104547     0.104547
Rotational constants in MHz :     0.000000  3134.234625  3134.234625

                             ****ORCA TERMINATED NORMALLY****
TOTAL RUN TIME: 0 days 0 hours 1 minutes 26 seconds 303 msec
