                         Program Version 4.2.0 -  RELEASE  -
|  1> #
|  2> # 47_NiO tpss/aug-cc-pvtz
|  3> #
|  4> ! tpss d3bj aug-cc-pvtz def2/j opt xyzfile
|  5>
|  6> *xyz 0 3
|  7> Ni 0.0 0.0 0.0
|  8> O 0.0 0.0 2.0
|  9> *
| 10>
| 11> %pal
| 12> nprocs 24
| 13> end
| 14>
| 15>
| 16>                          ****END OF INPUT****
 Total Charge           Charge          ....    0
 Multiplicity           Mult            ....    3
 Number of Electrons    NEL             ....   36
Dispersion correction           -0.000988424
FINAL SINGLE POINT ENERGY     -1583.577320205428   (Wavefunction not fully converged!)
Dispersion correction            ... done
Dispersion correction           -0.000886096
FINAL SINGLE POINT ENERGY     -1583.589265443684   (Wavefunction not fully converged!)
Dispersion correction            ... done
Dispersion correction           -0.000763024
FINAL SINGLE POINT ENERGY     -1583.611696221234
Dispersion correction            ... done
FINAL SINGLE POINT ENERGY     -1583.620360468773
FINAL SINGLE POINT ENERGY     -1583.620593353944
Dispersion correction            ... done
Dispersion correction           -0.000742922
FINAL SINGLE POINT ENERGY     -1583.620654449489
Dispersion correction            ... done
Dispersion correction           -0.000742887
FINAL SINGLE POINT ENERGY     -1583.620654663837
Dispersion correction            ... done
                    ***********************HURRAY********************

CARTESIAN COORDINATES (ANGSTROEM)
---------------------------------
  Ni     0.000000    0.000000    0.185129
  O      0.000000    0.000000    1.814871

 Multiplicity           Mult            ....    3
 Number of Electrons    NEL             ....   36
 Basis Dimension        Dim             ....  139

ORBITAL ENERGIES
----------------
                 SPIN UP ORBITALS
  NO   OCC          E(Eh)            E(eV)
   0   1.0000    -298.978676     -8135.6234
   1   1.0000     -35.394896      -963.1441
   2   1.0000     -30.841505      -839.2400
   3   1.0000     -30.823162      -838.7409
   4   1.0000     -30.823162      -838.7409
   5   1.0000     -18.910133      -514.5709
   6   1.0000      -3.929268      -106.9208
   7   1.0000      -2.572799       -70.0094
   8   1.0000      -2.517915       -68.5159
   9   1.0000      -2.517915       -68.5159
  10   1.0000      -0.859771       -23.3955
  11   1.0000      -0.345180        -9.3928
  12   1.0000      -0.337209        -9.1759
  13   1.0000      -0.337209        -9.1759
  14   1.0000      -0.238034        -6.4772
  15   1.0000      -0.237959        -6.4752
  16   1.0000      -0.234349        -6.3770
  17   1.0000      -0.234349        -6.3770
  18   1.0000      -0.214290        -5.8311
  19   0.0000      -0.132787        -3.6133
  20   0.0000      -0.016389        -0.4460
  21   0.0000      -0.016389        -0.4460
  22   0.0000       0.007636         0.2078
  23   0.0000       0.012087         0.3289

                 SPIN DOWN ORBITALS
  NO   OCC          E(Eh)            E(eV)
   0   1.0000    -298.978290     -8135.6129
   1   1.0000     -35.372326      -962.5299
   2   1.0000     -30.817358      -838.5829
   3   1.0000     -30.807724      -838.3208
   4   1.0000     -30.807724      -838.3208
   5   1.0000     -18.886814      -513.9363
   6   1.0000      -3.878233      -105.5321
   7   1.0000      -2.505199       -68.1699
   8   1.0000      -2.476093       -67.3779
   9   1.0000      -2.476093       -67.3779
  10   1.0000      -0.808691       -22.0056
  11   1.0000      -0.329523        -8.9668
  12   1.0000      -0.270401        -7.3580
  13   1.0000      -0.270401        -7.3580
  14   1.0000      -0.211714        -5.7610
  15   1.0000      -0.211670        -5.7598
  16   1.0000      -0.203106        -5.5268
  17   0.0000      -0.156757        -4.2656
  18   0.0000      -0.156757        -4.2656
  19   0.0000      -0.115453        -3.1416
  20   0.0000      -0.009680        -0.2634
  21   0.0000      -0.009680        -0.2634

MULLIKEN ATOMIC CHARGES AND SPIN POPULATIONS
--------------------------------------------
   0 Ni:    0.512977    1.087042
   1 O :   -0.512977    0.912958
Sum of atomic charges         :   -0.0000000

LOEWDIN ATOMIC CHARGES AND SPIN POPULATIONS
-------------------------------------------
   0 Ni:    0.491334    1.167498
   1 O :   -0.491334    0.832502

  Mayer bond orders larger than 0.100000
B(  0-Ni,  1-O ) :   1.9416

Dispersion correction           -0.000742888
FINAL SINGLE POINT ENERGY     -1583.620655119809

DIPOLE MOMENT
-------------
                                X             Y             Z
Electronic contribution:      0.00000      -0.00000      -2.53677
Nuclear contribution   :      0.00000       0.00000       0.89170
                        -----------------------------------------
Total Dipole Moment    :      0.00000      -0.00000      -1.64507
                        -----------------------------------------
Magnitude (a.u.)       :      1.64507
Magnitude (Debye)      :      4.18142

Rotational constants in cm-1:     0.000000     0.504828     0.504828
Rotational constants in MHz :     0.000000 15134.363944 15134.363944

                             ****ORCA TERMINATED NORMALLY****
TOTAL RUN TIME: 0 days 0 hours 2 minutes 0 seconds 341 msec
