                         Program Version 4.2.0 -  RELEASE  -
|  1> #
|  2> # 48_NiS tpss/aug-cc-pvtz
|  3> #
|  4> ! tpss d3bj aug-cc-pvtz def2/j opt xyzfile
|  5>
|  6> *xyz 0 3
|  7> Ni 0.0 0.0 0.0
|  8> S 0.0 0.0 2.0
|  9> *
| 10>
| 11> %pal
| 12> nprocs 24
| 13> end
| 14>
| 15>
| 16>                          ****END OF INPUT****
 Total Charge           Charge          ....    0
 Multiplicity           Mult            ....    3
 Number of Electrons    NEL             ....   44
Dispersion correction           -0.001734054
FINAL SINGLE POINT ENERGY     -1906.644343991054
Dispersion correction            ... done
Dispersion correction           -0.001733811
FINAL SINGLE POINT ENERGY     -1906.644404313090
Dispersion correction            ... done
Dispersion correction           -0.001732017
FINAL SINGLE POINT ENERGY     -1906.644650455042
Dispersion correction            ... done
Dispersion correction           -0.001732122
FINAL SINGLE POINT ENERGY     -1906.644651261086
Dispersion correction            ... done
                    ***********************HURRAY********************

CARTESIAN COORDINATES (ANGSTROEM)
---------------------------------
  Ni     0.000000    0.000000    0.014914
  S      0.000000    0.000000    1.985086

 Multiplicity           Mult            ....    3
 Number of Electrons    NEL             ....   44
 Basis Dimension        Dim             ....  143

ORBITAL ENERGIES
----------------
                 SPIN UP ORBITALS
  NO   OCC          E(Eh)            E(eV)
   0   1.0000    -298.960545     -8135.1300
   1   1.0000     -88.383124     -2405.0271
   2   1.0000     -35.371366      -962.5038
   3   1.0000     -30.817969      -838.5996
   4   1.0000     -30.800248      -838.1174
   5   1.0000     -30.800248      -838.1174
   6   1.0000      -7.735881      -210.5040
   7   1.0000      -5.716129      -155.5438
   8   1.0000      -5.716129      -155.5438
   9   1.0000      -5.711998      -155.4314
  10   1.0000      -3.906102      -106.2904
  11   1.0000      -2.546280       -69.2878
  12   1.0000      -2.497384       -67.9573
  13   1.0000      -2.497384       -67.9573
  14   1.0000      -0.624195       -16.9852
  15   1.0000      -0.304950        -8.2981
  16   1.0000      -0.294020        -8.0007
  17   1.0000      -0.294020        -8.0007
  18   1.0000      -0.222082        -6.0432
  19   1.0000      -0.221846        -6.0367
  20   1.0000      -0.216670        -5.8959
  21   1.0000      -0.215638        -5.8678
  22   1.0000      -0.215638        -5.8678
  23   0.0000      -0.122192        -3.3250
  24   0.0000      -0.016225        -0.4415
  25   0.0000      -0.016225        -0.4415
  26   0.0000       0.005874         0.1598
  27   0.0000       0.008894         0.2420

                 SPIN DOWN ORBITALS
  NO   OCC          E(Eh)            E(eV)
   0   1.0000    -298.960205     -8135.1208
   1   1.0000     -88.378760     -2404.9083
   2   1.0000     -35.350887      -961.9465
   3   1.0000     -30.796075      -838.0038
   4   1.0000     -30.786248      -837.7364
   5   1.0000     -30.786248      -837.7364
   6   1.0000      -7.731925      -210.3964
   7   1.0000      -5.709742      -155.3700
   8   1.0000      -5.708437      -155.3345
   9   1.0000      -5.708437      -155.3345
  10   1.0000      -3.859278      -105.0163
  11   1.0000      -2.484361       -67.6029
  12   1.0000      -2.458863       -66.9091
  13   1.0000      -2.458863       -66.9091
  14   1.0000      -0.593058       -16.1379
  15   1.0000      -0.293947        -7.9987
  16   1.0000      -0.240592        -6.5468
  17   1.0000      -0.240592        -6.5468
  18   1.0000      -0.207788        -5.6542
  19   1.0000      -0.197701        -5.3797
  20   1.0000      -0.197613        -5.3773
  21   0.0000      -0.157725        -4.2919
  22   0.0000      -0.157725        -4.2919
  23   0.0000      -0.107154        -2.9158
  24   0.0000      -0.009371        -0.2550
  25   0.0000      -0.009371        -0.2550

MULLIKEN ATOMIC CHARGES AND SPIN POPULATIONS
--------------------------------------------
   0 Ni:    0.233728    1.038595
   1 S :   -0.233728    0.961405
Sum of atomic charges         :   -0.0000000

LOEWDIN ATOMIC CHARGES AND SPIN POPULATIONS
-------------------------------------------
   0 Ni:   -0.026470    1.134667
   1 S :    0.026470    0.865333

  Mayer bond orders larger than 0.100000
B(  0-Ni,  1-S ) :   2.2964

Dispersion correction           -0.001732115
FINAL SINGLE POINT ENERGY     -1906.644650482070

DIPOLE MOMENT
-------------
                                X             Y             Z
Electronic contribution:      0.00000       0.00000      -3.20938
Nuclear contribution   :      0.00000       0.00000       1.70320
                        -----------------------------------------
Total Dipole Moment    :      0.00000       0.00000      -1.50618
                        -----------------------------------------
Magnitude (a.u.)       :      1.50618
Magnitude (Debye)      :      3.82840

Rotational constants in cm-1:     0.000000     0.209451     0.209451
Rotational constants in MHz :     0.000000  6279.170942  6279.170942

                             ****ORCA TERMINATED NORMALLY****
TOTAL RUN TIME: 0 days 0 hours 0 minutes 52 seconds 536 msec
