                         Program Version 4.2.0 -  RELEASE  -
|  1> #
|  2> # 49_CuH tpss/aug-cc-pvtz
|  3> #
|  4> ! tpss d3bj aug-cc-pvtz def2/j opt xyzfile
|  5>
|  6> *xyz 0 1
|  7> Cu 0.0 0.0 0.0
|  8> H 0.0 0.0 2.0
|  9> *
| 10>
| 11> %pal
| 12> nprocs 24
| 13> end
| 14>
| 15>
| 16>                          ****END OF INPUT****
 Total Charge           Charge          ....    0
 Multiplicity           Mult            ....    1
 Number of Electrons    NEL             ....   30
Dispersion correction           -0.000833632
FINAL SINGLE POINT ENERGY     -1641.136570175819
Dispersion correction            ... done
Dispersion correction           -0.000717631
FINAL SINGLE POINT ENERGY     -1641.150335520122
Dispersion correction            ... done
Dispersion correction           -0.000469899
FINAL SINGLE POINT ENERGY     -1641.162301785572
Dispersion correction            ... done
FINAL SINGLE POINT ENERGY     -1641.169719644317
FINAL SINGLE POINT ENERGY     -1641.170046757212
Dispersion correction            ... done
Dispersion correction           -0.000423674
FINAL SINGLE POINT ENERGY     -1641.170257925745
Dispersion correction            ... done
Dispersion correction           -0.000423589
FINAL SINGLE POINT ENERGY     -1641.170261100887
Dispersion correction            ... done
                    ***********************HURRAY********************

CARTESIAN COORDINATES (ANGSTROEM)
---------------------------------
  Cu     0.000000    0.000000    0.261888
  H      0.000000    0.000000    1.738112

 Multiplicity           Mult            ....    1
 Number of Electrons    NEL             ....   30
 Basis Dimension        Dim             ....  116

ORBITAL ENERGIES
----------------

  NO   OCC          E(Eh)            E(eV)
   0   2.0000    -322.086734     -8764.4256
   1   2.0000     -38.376092     -1044.2665
   2   2.0000     -33.593502      -914.1257
   3   2.0000     -33.593051      -914.1134
   4   2.0000     -33.593051      -914.1134
   5   2.0000      -4.153945      -113.0346
   6   2.0000      -2.671180       -72.6865
   7   2.0000      -2.661770       -72.4304
   8   2.0000      -2.661770       -72.4304
   9   2.0000      -0.295615        -8.0441
  10   2.0000      -0.217647        -5.9225
  11   2.0000      -0.217647        -5.9225
  12   2.0000      -0.209408        -5.6983
  13   2.0000      -0.209314        -5.6957
  14   2.0000      -0.195974        -5.3327
  15   0.0000      -0.097550        -2.6545
  16   0.0000      -0.022073        -0.6006
  17   0.0000      -0.022073        -0.6006
  18   0.0000       0.009995         0.2720
  19   0.0000       0.020796         0.5659

MULLIKEN ATOMIC CHARGES
-----------------------
   0 Cu:    0.016100
   1 H :   -0.016100
Sum of atomic charges:   -0.0000000

LOEWDIN ATOMIC CHARGES
----------------------
   0 Cu:    0.492614
   1 H :   -0.492614

  Mayer bond orders larger than 0.100000
B(  0-Cu,  1-H ) :   1.0524

Dispersion correction           -0.000423583
FINAL SINGLE POINT ENERGY     -1641.170260817433

DIPOLE MOMENT
-------------
                                X             Y             Z
Electronic contribution:     -0.00000      -0.00000      -2.48902
Nuclear contribution   :      0.00000       0.00000       1.48294
                        -----------------------------------------
Total Dipole Moment    :     -0.00000      -0.00000      -1.00608
                        -----------------------------------------
Magnitude (a.u.)       :      1.00608
Magnitude (Debye)      :      2.55725

Rotational constants in cm-1:     0.000000     7.795898     7.795898
Rotational constants in MHz :     0.000000 233715.143643 233715.143643

                             ****ORCA TERMINATED NORMALLY****
TOTAL RUN TIME: 0 days 0 hours 1 minutes 11 seconds 285 msec
