                         Program Version 4.2.0 -  RELEASE  -
|  1> #
|  2> # 50_CuF tpss/aug-cc-pvtz
|  3> #
|  4> ! tpss d3bj aug-cc-pvtz def2/j opt xyzfile
|  5>
|  6> *xyz 0 1
|  7> Cu 0.0 0.0 0.0
|  8> F 0.0 0.0 2.0
|  9> *
| 10>
| 11> %pal
| 12> nprocs 24
| 13> end
| 14>
| 15>
| 16>                          ****END OF INPUT****
 Total Charge           Charge          ....    0
 Multiplicity           Mult            ....    1
 Number of Electrons    NEL             ....   38
Dispersion correction           -0.000489210
FINAL SINGLE POINT ENERGY     -1740.476794396844
Dispersion correction            ... done
Dispersion correction           -0.000485614
FINAL SINGLE POINT ENERGY     -1740.480874057062
Dispersion correction            ... done
Dispersion correction           -0.000482779
FINAL SINGLE POINT ENERGY     -1740.490502183590
Dispersion correction            ... done
FINAL SINGLE POINT ENERGY     -1740.490716978903
Dispersion correction            ... done
Dispersion correction           -0.000482808
FINAL SINGLE POINT ENERGY     -1740.491059610702
Dispersion correction            ... done
Dispersion correction           -0.000482814
FINAL SINGLE POINT ENERGY     -1740.491065081357
Dispersion correction            ... done
                    ***********************HURRAY********************

CARTESIAN COORDINATES (ANGSTROEM)
---------------------------------
  Cu     0.000000    0.000000    0.122247
  F      0.000000    0.000000    1.877753

 Multiplicity           Mult            ....    1
 Number of Electrons    NEL             ....   38
 Basis Dimension        Dim             ....  139

ORBITAL ENERGIES
----------------

  NO   OCC          E(Eh)            E(eV)
   0   2.0000    -322.107817     -8764.9993
   1   2.0000     -38.394307     -1044.7622
   2   2.0000     -33.611568      -914.6173
   3   2.0000     -33.611568      -914.6173
   4   2.0000     -33.611344      -914.6112
   5   2.0000     -24.326962      -661.9703
   6   2.0000      -4.176989      -113.6617
   7   2.0000      -2.692939       -73.2786
   8   2.0000      -2.685816       -73.0848
   9   2.0000      -2.685816       -73.0848
  10   2.0000      -0.997226       -27.1359
  11   2.0000      -0.346133        -9.4188
  12   2.0000      -0.301793        -8.2122
  13   2.0000      -0.301793        -8.2122
  14   2.0000      -0.234023        -6.3681
  15   2.0000      -0.233952        -6.3662
  16   2.0000      -0.218096        -5.9347
  17   2.0000      -0.218096        -5.9347
  18   2.0000      -0.214647        -5.8408
  19   0.0000      -0.139398        -3.7932
  20   0.0000      -0.016911        -0.4602
  21   0.0000      -0.016911        -0.4602
  22   0.0000       0.008205         0.2233
  23   0.0000       0.014945         0.4067

MULLIKEN ATOMIC CHARGES
-----------------------
   0 Cu:    0.645135
   1 F :   -0.645135
Sum of atomic charges:   -0.0000000

LOEWDIN ATOMIC CHARGES
----------------------
   0 Cu:    0.404303
   1 F :   -0.404303

  Mayer bond orders larger than 0.100000
B(  0-Cu,  1-F ) :   0.6978

Dispersion correction           -0.000482815
FINAL SINGLE POINT ENERGY     -1740.491064964192

DIPOLE MOMENT
-------------
                                X             Y             Z
Electronic contribution:      0.00000      -0.00000      -2.68394
Nuclear contribution   :      0.00000       0.00000       0.84427
                        -----------------------------------------
Total Dipole Moment    :      0.00000      -0.00000      -1.83967
                        -----------------------------------------
Magnitude (a.u.)       :      1.83967
Magnitude (Debye)      :      4.67608

Rotational constants in cm-1:     0.000000     0.374004     0.374004
Rotational constants in MHz :     0.000000 11212.347169 11212.347169

                             ****ORCA TERMINATED NORMALLY****
TOTAL RUN TIME: 0 days 0 hours 1 minutes 5 seconds 977 msec
