                         Program Version 4.2.0 -  RELEASE  -
|  1> #
|  2> # 51_CuCl tpss/aug-cc-pvtz
|  3> #
|  4> ! tpss d3bj aug-cc-pvtz def2/j opt xyzfile
|  5>
|  6> *xyz 0 1
|  7> Cu 0.0 0.0 0.0
|  8> Cl 0.0 0.0 2.0
|  9> *
| 10>
| 11> %pal
| 12> nprocs 24
| 13> end
| 14>
| 15>
| 16>                          ****END OF INPUT****
 Total Charge           Charge          ....    0
 Multiplicity           Mult            ....    1
 Number of Electrons    NEL             ....   46
Dispersion correction           -0.001342661
FINAL SINGLE POINT ENERGY     -2100.878977366287
Dispersion correction            ... done
Dispersion correction           -0.001342489
FINAL SINGLE POINT ENERGY     -2100.879257650279
Dispersion correction            ... done
Dispersion correction           -0.001341252
FINAL SINGLE POINT ENERGY     -2100.880204435271
Dispersion correction            ... done
Dispersion correction           -0.001341037
FINAL SINGLE POINT ENERGY     -2100.880216246553
Dispersion correction            ... done
Dispersion correction           -0.001341000
FINAL SINGLE POINT ENERGY     -2100.880215009695
Dispersion correction            ... done
                    ***********************HURRAY********************

CARTESIAN COORDINATES (ANGSTROEM)
---------------------------------
  Cu     0.000000    0.000000   -0.034591
  Cl     0.000000    0.000000    2.034591

 Multiplicity           Mult            ....    1
 Number of Electrons    NEL             ....   46
 Basis Dimension        Dim             ....  143

ORBITAL ENERGIES
----------------

  NO   OCC          E(Eh)            E(eV)
   0   2.0000    -322.111438     -8765.0978
   1   2.0000    -100.980221     -2747.8115
   2   2.0000     -38.397149     -1044.8395
   3   2.0000     -33.614461      -914.6960
   4   2.0000     -33.614461      -914.6960
   5   2.0000     -33.614309      -914.6919
   6   2.0000      -9.206263      -250.5152
   7   2.0000      -6.984775      -190.0654
   8   2.0000      -6.979113      -189.9113
   9   2.0000      -6.979113      -189.9113
  10   2.0000      -4.179410      -113.7275
  11   2.0000      -2.695430       -73.3464
  12   2.0000      -2.688550       -73.1592
  13   2.0000      -2.688550       -73.1592
  14   2.0000      -0.708956       -19.2917
  15   2.0000      -0.325623        -8.8606
  16   2.0000      -0.280004        -7.6193
  17   2.0000      -0.280004        -7.6193
  18   2.0000      -0.237639        -6.4665
  19   2.0000      -0.237259        -6.4561
  20   2.0000      -0.225592        -6.1387
  21   2.0000      -0.220084        -5.9888
  22   2.0000      -0.220084        -5.9888
  23   0.0000      -0.135984        -3.7003
  24   0.0000      -0.019658        -0.5349
  25   0.0000      -0.019658        -0.5349
  26   0.0000       0.008263         0.2248
  27   0.0000       0.009444         0.2570

MULLIKEN ATOMIC CHARGES
-----------------------
   0 Cu:    0.511771
   1 Cl:   -0.511771
Sum of atomic charges:    0.0000000

LOEWDIN ATOMIC CHARGES
----------------------
   0 Cu:    0.036685
   1 Cl:   -0.036685

  Mayer bond orders larger than 0.100000
B(  0-Cu,  1-Cl) :   1.0164

Dispersion correction           -0.001340999
FINAL SINGLE POINT ENERGY     -2100.880215194587

DIPOLE MOMENT
-------------
                                X             Y             Z
Electronic contribution:     -0.00000       0.00000      -3.90637
Nuclear contribution   :      0.00000       0.00000       2.06219
                        -----------------------------------------
Total Dipole Moment    :     -0.00000       0.00000      -1.84418
                        -----------------------------------------
Magnitude (a.u.)       :      1.84418
Magnitude (Debye)      :      4.68753

Rotational constants in cm-1:     0.000000     0.173013     0.173013
Rotational constants in MHz :     0.000000  5186.804112  5186.804112

                             ****ORCA TERMINATED NORMALLY****
TOTAL RUN TIME: 0 days 0 hours 0 minutes 58 seconds 95 msec
