                         Program Version 4.2.0 -  RELEASE  -
|  1> #
|  2> # 52_CuBr tpss/aug-cc-pvtz
|  3> #
|  4> ! tpss d3bj aug-cc-pvtz def2/j opt xyzfile
|  5>
|  6> *xyz 0 1
|  7> Cu 0.0 0.0 0.0
|  8> Br 0.0 0.0 2.0
|  9> *
| 10>
| 11> %pal
| 12> nprocs 24
| 13> end
| 14>
| 15>
| 16>                          ****END OF INPUT****
 Total Charge           Charge          ....    0
 Multiplicity           Mult            ....    1
 Number of Electrons    NEL             ....   64
Dispersion correction           -0.001517176
FINAL SINGLE POINT ENERGY     -4214.745322124052
Dispersion correction            ... done
Dispersion correction           -0.001516841
FINAL SINGLE POINT ENERGY     -4214.747421322827
Dispersion correction            ... done
Dispersion correction           -0.001514221
FINAL SINGLE POINT ENERGY     -4214.755339416222
Dispersion correction            ... done
FINAL SINGLE POINT ENERGY     -4214.756225992655
Dispersion correction            ... done
Dispersion correction           -0.001512487
FINAL SINGLE POINT ENERGY     -4214.756322352186
Dispersion correction            ... done
Dispersion correction           -0.001512409
FINAL SINGLE POINT ENERGY     -4214.756323947070
Dispersion correction            ... done
                    ***********************HURRAY********************

CARTESIAN COORDINATES (ANGSTROEM)
---------------------------------
  Cu     0.000000    0.000000   -0.096005
  Br     0.000000    0.000000    2.096005

 Multiplicity           Mult            ....    1
 Number of Electrons    NEL             ....   64
 Basis Dimension        Dim             ....  152

ORBITAL ENERGIES
----------------

  NO   OCC          E(Eh)            E(eV)
   0   2.0000    -481.708446    -13107.9532
   1   2.0000    -322.110279     -8765.0663
   2   2.0000     -61.920900     -1684.9533
   3   2.0000     -55.754780     -1517.1647
   4   2.0000     -55.753011     -1517.1166
   5   2.0000     -55.753011     -1517.1166
   6   2.0000     -38.395546     -1044.7959
   7   2.0000     -33.612903      -914.6536
   8   2.0000     -33.612903      -914.6536
   9   2.0000     -33.612677      -914.6474
  10   2.0000      -8.447262      -229.8617
  11   2.0000      -6.288490      -171.1185
  12   2.0000      -6.281651      -170.9324
  13   2.0000      -6.281651      -170.9324
  14   2.0000      -4.177753      -113.6824
  15   2.0000      -2.693659       -73.2982
  16   2.0000      -2.687066       -73.1188
  17   2.0000      -2.687066       -73.1188
  18   2.0000      -2.456978       -66.8578
  19   2.0000      -2.454844       -66.7997
  20   2.0000      -2.454844       -66.7997
  21   2.0000      -2.449898       -66.6651
  22   2.0000      -2.449610       -66.6573
  23   2.0000      -0.676320       -18.4036
  24   2.0000      -0.313449        -8.5294
  25   2.0000      -0.269517        -7.3339
  26   2.0000      -0.269517        -7.3339
  27   2.0000      -0.236471        -6.4347
  28   2.0000      -0.236143        -6.4258
  29   2.0000      -0.226388        -6.1603
  30   2.0000      -0.216820        -5.9000
  31   2.0000      -0.216820        -5.9000
  32   0.0000      -0.134277        -3.6539
  33   0.0000      -0.020827        -0.5667
  34   0.0000      -0.020827        -0.5667
  35   0.0000       0.006115         0.1664
  36   0.0000       0.007870         0.2142

MULLIKEN ATOMIC CHARGES
-----------------------
   0 Cu:    0.496515
   1 Br:   -0.496515
Sum of atomic charges:    0.0000000

LOEWDIN ATOMIC CHARGES
----------------------
   0 Cu:   -0.072283
   1 Br:    0.072283

  Mayer bond orders larger than 0.100000
B(  0-Cu,  1-Br) :   0.9785

Dispersion correction           -0.001512406
FINAL SINGLE POINT ENERGY     -4214.756324177443

DIPOLE MOMENT
-------------
                                X             Y             Z
Electronic contribution:     -0.00000      -0.00000       0.91622
Nuclear contribution   :      0.00000       0.00000      -2.68116
                        -----------------------------------------
Total Dipole Moment    :     -0.00000      -0.00000      -1.76494
                        -----------------------------------------
Magnitude (a.u.)       :      1.76494
Magnitude (Debye)      :      4.48611

Rotational constants in cm-1:     0.000000     0.099117     0.099117
Rotational constants in MHz :     0.000000  2971.467067  2971.467067

                             ****ORCA TERMINATED NORMALLY****
TOTAL RUN TIME: 0 days 0 hours 1 minutes 20 seconds 665 msec
