                         Program Version 4.2.0 -  RELEASE  -
|  1> #
|  2> # 53_CuO tpss/aug-cc-pvtz
|  3> #
|  4> ! tpss d3bj aug-cc-pvtz def2/j opt xyzfile
|  5>
|  6> *xyz 0 2
|  7> Cu 0.0 0.0 0.0
|  8> O 0.0 0.0 2.0
|  9> *
| 10>
| 11> %pal
| 12> nprocs 24
| 13> end
| 14>
| 15>
| 16>                          ****END OF INPUT****
 Total Charge           Charge          ....    0
 Multiplicity           Mult            ....    2
 Number of Electrons    NEL             ....   37
Dispersion correction           -0.000666944
FINAL SINGLE POINT ENERGY     -1715.765284402077
Dispersion correction            ... done
Dispersion correction           -0.000662218
FINAL SINGLE POINT ENERGY     -1715.769418993878
Dispersion correction            ... done
Dispersion correction           -0.000657721
FINAL SINGLE POINT ENERGY     -1715.781000525225
Dispersion correction            ... done
FINAL SINGLE POINT ENERGY     -1715.780553745563
FINAL SINGLE POINT ENERGY     -1715.782793299197
Dispersion correction            ... done
Dispersion correction           -0.000657673
FINAL SINGLE POINT ENERGY     -1715.782868316496
Dispersion correction            ... done
Dispersion correction           -0.000657679
FINAL SINGLE POINT ENERGY     -1715.782872828290
Dispersion correction            ... done
                    ***********************HURRAY********************

CARTESIAN COORDINATES (ANGSTROEM)
---------------------------------
  Cu     0.000000    0.000000    0.138710
  O      0.000000    0.000000    1.861290

 Multiplicity           Mult            ....    2
 Number of Electrons    NEL             ....   37
 Basis Dimension        Dim             ....  139

ORBITAL ENERGIES
----------------
                 SPIN UP ORBITALS
  NO   OCC          E(Eh)            E(eV)
   0   1.0000    -322.139474     -8765.8607
   1   1.0000     -38.434597     -1045.8586
   2   1.0000     -33.652214      -915.7233
   3   1.0000     -33.651875      -915.7141
   4   1.0000     -33.649137      -915.6396
   5   1.0000     -18.899136      -514.2716
   6   1.0000      -4.215283      -114.7037
   7   1.0000      -2.736044       -74.4515
   8   1.0000      -2.727561       -74.2207
   9   1.0000      -2.713052       -73.8259
  10   1.0000      -0.843588       -22.9552
  11   1.0000      -0.332834        -9.0569
  12   1.0000      -0.332355        -9.0438
  13   1.0000      -0.296686        -8.0732
  14   1.0000      -0.261880        -7.1261
  15   1.0000      -0.261797        -7.1239
  16   1.0000      -0.249186        -6.7807
  17   1.0000      -0.227674        -6.1953
  18   1.0000      -0.211316        -5.7502
  19   0.0000      -0.136285        -3.7085
  20   0.0000      -0.018846        -0.5128
  21   0.0000      -0.014538        -0.3956
  22   0.0000       0.009282         0.2526
  23   0.0000       0.012674         0.3449

                 SPIN DOWN ORBITALS
  NO   OCC          E(Eh)            E(eV)
   0   1.0000    -322.139451     -8765.8601
   1   1.0000     -38.430155     -1045.7377
   2   1.0000     -33.647665      -915.5995
   3   1.0000     -33.647394      -915.5921
   4   1.0000     -33.647290      -915.5893
   5   1.0000     -18.877044      -513.6705
   6   1.0000      -4.205629      -114.4410
   7   1.0000      -2.723085       -74.0989
   8   1.0000      -2.715623       -73.8959
   9   1.0000      -2.709518       -73.7297
  10   1.0000      -0.788506       -21.4563
  11   1.0000      -0.318175        -8.6580
  12   1.0000      -0.289116        -7.8672
  13   1.0000      -0.278684        -7.5834
  14   1.0000      -0.257379        -7.0036
  15   1.0000      -0.257282        -7.0010
  16   1.0000      -0.220848        -6.0096
  17   1.0000      -0.198475        -5.4008
  18   0.0000      -0.166435        -4.5289
  19   0.0000      -0.130775        -3.5586
  20   0.0000      -0.015981        -0.4349
  21   0.0000      -0.012817        -0.3488
  22   0.0000       0.008252         0.2246

MULLIKEN ATOMIC CHARGES AND SPIN POPULATIONS
--------------------------------------------
   0 Cu:    0.595707    0.122430
   1 O :   -0.595707    0.877570
Sum of atomic charges         :   -0.0000000

LOEWDIN ATOMIC CHARGES AND SPIN POPULATIONS
-------------------------------------------
   0 Cu:    0.406806    0.185678
   1 O :   -0.406806    0.814322

  Mayer bond orders larger than 0.100000
B(  0-Cu,  1-O ) :   1.2461

Dispersion correction           -0.000657679
FINAL SINGLE POINT ENERGY     -1715.782872392837

DIPOLE MOMENT
-------------
                                X             Y             Z
Electronic contribution:      0.00000       0.00000      -3.54366
Nuclear contribution   :      0.00000       0.00000       1.81807
                        -----------------------------------------
Total Dipole Moment    :      0.00000       0.00000      -1.72559
                        -----------------------------------------
Magnitude (a.u.)       :      1.72559
Magnitude (Debye)      :      4.38609

Rotational constants in cm-1:     0.000000     0.444492     0.444492
Rotational constants in MHz :     0.000000 13325.547784 13325.547784

                             ****ORCA TERMINATED NORMALLY****
TOTAL RUN TIME: 0 days 0 hours 1 minutes 40 seconds 201 msec
