                         Program Version 4.2.0 -  RELEASE  -
|  1> #
|  2> # 54_CuS tpss/aug-cc-pvtz
|  3> #
|  4> ! tpss d3bj aug-cc-pvtz def2/j opt xyzfile
|  5>
|  6> *xyz 0 2
|  7> Cu 0.0 0.0 0.0
|  8> S 0.0 0.0 2.0
|  9> *
| 10>
| 11> %pal
| 12> nprocs 24
| 13> end
| 14>
| 15>
| 16>                          ****END OF INPUT****
 Total Charge           Charge          ....    0
 Multiplicity           Mult            ....    2
 Number of Electrons    NEL             ....   45
Dispersion correction           -0.001529084
FINAL SINGLE POINT ENERGY     -2038.818472898368
Dispersion correction            ... done
Dispersion correction           -0.001528964
FINAL SINGLE POINT ENERGY     -2038.818642249319
Dispersion correction            ... done
Dispersion correction           -0.001527871
FINAL SINGLE POINT ENERGY     -2038.819387676803
Dispersion correction            ... done
Dispersion correction           -0.001527719
FINAL SINGLE POINT ENERGY     -2038.819396108014
Dispersion correction            ... done
Dispersion correction           -0.001527698
FINAL SINGLE POINT ENERGY     -2038.819395910784
Dispersion correction            ... done
                    ***********************HURRAY********************

CARTESIAN COORDINATES (ANGSTROEM)
---------------------------------
  Cu     0.000000    0.000000   -0.028928
  S      0.000000    0.000000    2.028928

 Multiplicity           Mult            ....    2
 Number of Electrons    NEL             ....   45
 Basis Dimension        Dim             ....  143

ORBITAL ENERGIES
----------------
                 SPIN UP ORBITALS
  NO   OCC          E(Eh)            E(eV)
   0   1.0000    -322.131477     -8765.6431
   1   1.0000     -88.381811     -2404.9913
   2   1.0000     -38.423595     -1045.5592
   3   1.0000     -33.641062      -915.4198
   4   1.0000     -33.641059      -915.4198
   5   1.0000     -33.638834      -915.3592
   6   1.0000      -7.733921      -210.4507
   7   1.0000      -5.720766      -155.6700
   8   1.0000      -5.711715      -155.4237
   9   1.0000      -5.705694      -155.2598
  10   1.0000      -4.204037      -114.3977
  11   1.0000      -2.723565       -74.1120
  12   1.0000      -2.716227       -73.9123
  13   1.0000      -2.704380       -73.5899
  14   1.0000      -0.619819       -16.8661
  15   1.0000      -0.306302        -8.3349
  16   1.0000      -0.296325        -8.0634
  17   1.0000      -0.276754        -7.5309
  18   1.0000      -0.254328        -6.9206
  19   1.0000      -0.254306        -6.9200
  20   1.0000      -0.232247        -6.3198
  21   1.0000      -0.232169        -6.3176
  22   1.0000      -0.200054        -5.4437
  23   0.0000      -0.127701        -3.4749
  24   0.0000      -0.021669        -0.5897
  25   0.0000      -0.016552        -0.4504
  26   0.0000       0.006008         0.1635
  27   0.0000       0.008751         0.2381

                 SPIN DOWN ORBITALS
  NO   OCC          E(Eh)            E(eV)
   0   1.0000    -322.131433     -8765.6419
   1   1.0000     -88.377856     -2404.8837
   2   1.0000     -38.420404     -1045.4724
   3   1.0000     -33.637864      -915.3328
   4   1.0000     -33.637648      -915.3269
   5   1.0000     -33.637614      -915.3260
   6   1.0000      -7.730188      -210.3491
   7   1.0000      -5.709261      -155.3569
   8   1.0000      -5.709154      -155.3540
   9   1.0000      -5.703341      -155.1958
  10   1.0000      -4.197017      -114.2066
  11   1.0000      -2.714257       -73.8587
  12   1.0000      -2.707148       -73.6652
  13   1.0000      -2.702039       -73.5262
  14   1.0000      -0.587137       -15.9768
  15   1.0000      -0.299396        -8.1470
  16   1.0000      -0.272646        -7.4191
  17   1.0000      -0.268751        -7.3131
  18   1.0000      -0.250802        -6.8247
  19   1.0000      -0.250778        -6.8240
  20   1.0000      -0.227895        -6.2013
  21   1.0000      -0.191471        -5.2102
  22   0.0000      -0.174616        -4.7515
  23   0.0000      -0.123367        -3.3570
  24   0.0000      -0.016697        -0.4543
  25   0.0000      -0.015284        -0.4159
  26   0.0000       0.008840         0.2405

MULLIKEN ATOMIC CHARGES AND SPIN POPULATIONS
--------------------------------------------
   0 Cu:    0.408097    0.110815
   1 S :   -0.408097    0.889185
Sum of atomic charges         :   -0.0000000

LOEWDIN ATOMIC CHARGES AND SPIN POPULATIONS
-------------------------------------------
   0 Cu:   -0.029804    0.207917
   1 S :    0.029804    0.792083

  Mayer bond orders larger than 0.100000
B(  0-Cu,  1-S ) :   1.4030

Dispersion correction           -0.001527697
FINAL SINGLE POINT ENERGY     -2038.819396084392

DIPOLE MOMENT
-------------
                                X             Y             Z
Electronic contribution:      0.00000       0.00000      -5.13760
Nuclear contribution   :      0.00000       0.00000       3.54103
                        -----------------------------------------
Total Dipole Moment    :      0.00000       0.00000      -1.59657
                        -----------------------------------------
Magnitude (a.u.)       :      1.59657
Magnitude (Debye)      :      4.05816

Rotational constants in cm-1:     0.000000     0.186806     0.186806
Rotational constants in MHz :     0.000000  5600.307820  5600.307820

                             ****ORCA TERMINATED NORMALLY****
TOTAL RUN TIME: 0 days 0 hours 1 minutes 0 seconds 603 msec
