                         Program Version 4.2.0 -  RELEASE  -
|  1> #
|  2> # 55_ZnH tpss/aug-cc-pvtz
|  3> #
|  4> ! tpss d3bj aug-cc-pvtz def2/j opt xyzfile
|  5>
|  6> *xyz 0 2
|  7> Zn 0.0 0.0 0.0
|  8> H 0.0 0.0 2.0
|  9> *
| 10>
| 11> %pal
| 12> nprocs 24
| 13> end
| 14>
| 15>
| 16>                          ****END OF INPUT****
 Total Charge           Charge          ....    0
 Multiplicity           Mult            ....    2
 Number of Electrons    NEL             ....   31
Dispersion correction           -0.000849448
FINAL SINGLE POINT ENERGY     -1779.980480325242
Dispersion correction            ... done
Dispersion correction           -0.000750557
FINAL SINGLE POINT ENERGY     -1779.984888055213
Dispersion correction            ... done
Dispersion correction           -0.000590878
FINAL SINGLE POINT ENERGY     -1779.991129796177
Dispersion correction            ... done
FINAL SINGLE POINT ENERGY     -1779.993330671906
FINAL SINGLE POINT ENERGY     -1779.993428016142
Dispersion correction            ... done
Dispersion correction           -0.000517982
FINAL SINGLE POINT ENERGY     -1779.993443769194
Dispersion correction            ... done
Dispersion correction           -0.000517689
FINAL SINGLE POINT ENERGY     -1779.993443791069
Dispersion correction            ... done
                    ***********************HURRAY********************

CARTESIAN COORDINATES (ANGSTROEM)
---------------------------------
  Zn     0.000000    0.000000    0.194021
  H      0.000000    0.000000    1.805979

 Multiplicity           Mult            ....    2
 Number of Electrons    NEL             ....   31
 Basis Dimension        Dim             ....  116

ORBITAL ENERGIES
----------------
                 SPIN UP ORBITALS
  NO   OCC          E(Eh)            E(eV)
   0   1.0000    -346.310781     -9423.5954
   1   1.0000     -41.764573     -1136.4718
   2   1.0000     -36.759073     -1000.2652
   3   1.0000     -36.759073     -1000.2652
   4   1.0000     -36.756910     -1000.2064
   5   1.0000      -4.674015      -127.1864
   6   1.0000      -3.083200       -83.8981
   7   1.0000      -3.083200       -83.8981
   8   1.0000      -3.078344       -83.7660
   9   1.0000      -0.428778       -11.6676
  10   1.0000      -0.418375       -11.3846
  11   1.0000      -0.418309       -11.3828
  12   1.0000      -0.415173       -11.2974
  13   1.0000      -0.415173       -11.2974
  14   1.0000      -0.308798        -8.4028
  15   1.0000      -0.171549        -4.6681
  16   0.0000      -0.055193        -1.5019
  17   0.0000      -0.055193        -1.5019
  18   0.0000      -0.000496        -0.0135
  19   0.0000       0.013169         0.3583
  20   0.0000       0.031042         0.8447

                 SPIN DOWN ORBITALS
  NO   OCC          E(Eh)            E(eV)
   0   1.0000    -346.310083     -9423.5764
   1   1.0000     -41.764546     -1136.4711
   2   1.0000     -36.759205     -1000.2688
   3   1.0000     -36.759205     -1000.2688
   4   1.0000     -36.755789     -1000.1759
   5   1.0000      -4.673330      -127.1678
   6   1.0000      -3.082319       -83.8742
   7   1.0000      -3.082319       -83.8742
   8   1.0000      -3.077348       -83.7389
   9   1.0000      -0.419990       -11.4285
  10   1.0000      -0.415514       -11.3067
  11   1.0000      -0.415446       -11.3049
  12   1.0000      -0.411485       -11.1971
  13   1.0000      -0.411485       -11.1971
  14   1.0000      -0.281932        -7.6718
  15   0.0000      -0.116656        -3.1744
  16   0.0000      -0.038330        -1.0430
  17   0.0000      -0.038330        -1.0430
  18   0.0000       0.009779         0.2661
  19   0.0000       0.027800         0.7565

MULLIKEN ATOMIC CHARGES AND SPIN POPULATIONS
--------------------------------------------
   0 Zn:    0.130237    0.669277
   1 H :   -0.130237    0.330723
Sum of atomic charges         :   -0.0000000

LOEWDIN ATOMIC CHARGES AND SPIN POPULATIONS
-------------------------------------------
   0 Zn:    0.537752    0.775237
   1 H :   -0.537752    0.224763

  Mayer bond orders larger than 0.100000
B(  0-Zn,  1-H ) :   0.8566

Dispersion correction           -0.000517697
FINAL SINGLE POINT ENERGY     -1779.993443278516

DIPOLE MOMENT
-------------
                                X             Y             Z
Electronic contribution:      0.00000       0.00000      -1.82135
Nuclear contribution   :      0.00000       0.00000       1.61237
                        -----------------------------------------
Total Dipole Moment    :      0.00000       0.00000      -0.20898
                        -----------------------------------------
Magnitude (a.u.)       :      0.20898
Magnitude (Debye)      :      0.53119

Rotational constants in cm-1:     0.000000     6.535423     6.535423
Rotational constants in MHz :     0.000000 195927.048997 195927.048997

                             ****ORCA TERMINATED NORMALLY****
TOTAL RUN TIME: 0 days 0 hours 1 minutes 10 seconds 520 msec
