                         Program Version 4.2.0 -  RELEASE  -
|  1> #
|  2> # 56_ZnF tpss/aug-cc-pvtz
|  3> #
|  4> ! tpss d3bj aug-cc-pvtz def2/j opt xyzfile
|  5>
|  6> *xyz 0 2
|  7> Zn 0.0 0.0 0.0
|  8> F 0.0 0.0 2.0
|  9> *
| 10>
| 11> %pal
| 12> nprocs 24
| 13> end
| 14>
| 15>
| 16>                          ****END OF INPUT****
 Total Charge           Charge          ....    0
 Multiplicity           Mult            ....    2
 Number of Electrons    NEL             ....   39
Dispersion correction           -0.000581698
FINAL SINGLE POINT ENERGY     -1879.326325580585
Dispersion correction            ... done
Dispersion correction           -0.000569123
FINAL SINGLE POINT ENERGY     -1879.329357609471
Dispersion correction            ... done
Dispersion correction           -0.000544268
FINAL SINGLE POINT ENERGY     -1879.336331492492
Dispersion correction            ... done
Dispersion correction           -0.000543553
FINAL SINGLE POINT ENERGY     -1879.336345125152
Dispersion correction            ... done
Dispersion correction           -0.000543814
FINAL SINGLE POINT ENERGY     -1879.336351181096
Dispersion correction            ... done
                    ***********************HURRAY********************

CARTESIAN COORDINATES (ANGSTROEM)
---------------------------------
  Zn     0.000000    0.000000    0.103055
  F      0.000000    0.000000    1.896945

 Multiplicity           Mult            ....    2
 Number of Electrons    NEL             ....   39
 Basis Dimension        Dim             ....  139

ORBITAL ENERGIES
----------------
                 SPIN UP ORBITALS
  NO   OCC          E(Eh)            E(eV)
   0   1.0000    -346.329354     -9424.1008
   1   1.0000     -41.780481     -1136.9047
   2   1.0000     -36.775701     -1000.7177
   3   1.0000     -36.775701     -1000.7177
   4   1.0000     -36.771720     -1000.6094
   5   1.0000     -24.346668      -662.5065
   6   1.0000      -4.693649      -127.7207
   7   1.0000      -3.103842       -84.4598
   8   1.0000      -3.103842       -84.4598
   9   1.0000      -3.097153       -84.2778
  10   1.0000      -1.023903       -27.8618
  11   1.0000      -0.452485       -12.3127
  12   1.0000      -0.440779       -11.9942
  13   1.0000      -0.440779       -11.9942
  14   1.0000      -0.440543       -11.9878
  15   1.0000      -0.440455       -11.9854
  16   1.0000      -0.343066        -9.3353
  17   1.0000      -0.300040        -8.1645
  18   1.0000      -0.300040        -8.1645
  19   1.0000      -0.217111        -5.9079
  20   0.0000      -0.053620        -1.4591
  21   0.0000      -0.053620        -1.4591
  22   0.0000      -0.005492        -0.1494
  23   0.0000       0.001439         0.0392
  24   0.0000       0.029724         0.8088

                 SPIN DOWN ORBITALS
  NO   OCC          E(Eh)            E(eV)
   0   1.0000    -346.328347     -9424.0734
   1   1.0000     -41.780585     -1136.9075
   2   1.0000     -36.775973     -1000.7251
   3   1.0000     -36.775973     -1000.7251
   4   1.0000     -36.770561     -1000.5778
   5   1.0000     -24.342742      -662.3997
   6   1.0000      -4.693006      -127.7032
   7   1.0000      -3.102479       -84.4227
   8   1.0000      -3.102479       -84.4227
   9   1.0000      -3.096747       -84.2668
  10   1.0000      -1.015307       -27.6279
  11   1.0000      -0.444105       -12.0847
  12   1.0000      -0.436079       -11.8663
  13   1.0000      -0.436079       -11.8663
  14   1.0000      -0.435376       -11.8472
  15   1.0000      -0.435283       -11.8446
  16   1.0000      -0.326114        -8.8740
  17   1.0000      -0.296947        -8.0803
  18   1.0000      -0.296947        -8.0803
  19   0.0000      -0.167410        -4.5555
  20   0.0000      -0.026906        -0.7321
  21   0.0000      -0.026906        -0.7321
  22   0.0000       0.008760         0.2384
  23   0.0000       0.017296         0.4707

MULLIKEN ATOMIC CHARGES AND SPIN POPULATIONS
--------------------------------------------
   0 Zn:    0.633443    0.926747
   1 F :   -0.633443    0.073253
Sum of atomic charges         :   -0.0000000

LOEWDIN ATOMIC CHARGES AND SPIN POPULATIONS
-------------------------------------------
   0 Zn:    0.517575    0.822188
   1 F :   -0.517575    0.177812

  Mayer bond orders larger than 0.100000
B(  0-Zn,  1-F ) :   0.5839

Dispersion correction           -0.000543808
FINAL SINGLE POINT ENERGY     -1879.336351407935

DIPOLE MOMENT
-------------
                                X             Y             Z
Electronic contribution:     -0.00000       0.00000      -1.85600
Nuclear contribution   :      0.00000       0.00000       0.74245
                        -----------------------------------------
Total Dipole Moment    :     -0.00000       0.00000      -1.11355
                        -----------------------------------------
Magnitude (a.u.)       :      1.11355
Magnitude (Debye)      :      2.83041

Rotational constants in cm-1:     0.000000     0.355862     0.355862
Rotational constants in MHz :     0.000000 10668.470416 10668.470416

                             ****ORCA TERMINATED NORMALLY****
TOTAL RUN TIME: 0 days 0 hours 0 minutes 54 seconds 669 msec
