                         Program Version 4.2.0 -  RELEASE  -
|  1> #
|  2> # 57_ZnCl tpss/aug-cc-pvtz
|  3> #
|  4> ! tpss d3bj aug-cc-pvtz def2/j opt xyzfile
|  5>
|  6> *xyz 0 2
|  7> Zn 0.0 0.0 0.0
|  8> Cl 0.0 0.0 2.0
|  9> *
| 10>
| 11> %pal
| 12> nprocs 24
| 13> end
| 14>
| 15>
| 16>                          ****END OF INPUT****
 Total Charge           Charge          ....    0
 Multiplicity           Mult            ....    2
 Number of Electrons    NEL             ....   47
Dispersion correction           -0.001519001
FINAL SINGLE POINT ENERGY     -2239.706231797104
Dispersion correction            ... done
Dispersion correction           -0.001519331
FINAL SINGLE POINT ENERGY     -2239.707890956337
Dispersion correction            ... done
Dispersion correction           -0.001524620
FINAL SINGLE POINT ENERGY     -2239.712834429476
Dispersion correction            ... done
FINAL SINGLE POINT ENERGY     -2239.713287054742
Dispersion correction            ... done
Dispersion correction           -0.001530434
FINAL SINGLE POINT ENERGY     -2239.713321212615
Dispersion correction            ... done
Dispersion correction           -0.001530643
FINAL SINGLE POINT ENERGY     -2239.713321272150
Dispersion correction            ... done
                    ***********************HURRAY********************

CARTESIAN COORDINATES (ANGSTROEM)
---------------------------------
  Zn     0.000000    0.000000   -0.083074
  Cl     0.000000    0.000000    2.083074

 Multiplicity           Mult            ....    2
 Number of Electrons    NEL             ....   47
 Basis Dimension        Dim             ....  143

ORBITAL ENERGIES
----------------
                 SPIN UP ORBITALS
  NO   OCC          E(Eh)            E(eV)
   0   1.0000    -346.340325     -9424.3994
   1   1.0000    -100.995849     -2748.2368
   2   1.0000     -41.792005     -1137.2183
   3   1.0000     -36.786695     -1001.0169
   4   1.0000     -36.786695     -1001.0169
   5   1.0000     -36.784325     -1000.9524
   6   1.0000      -9.222606      -250.9599
   7   1.0000      -7.001812      -190.5290
   8   1.0000      -6.995372      -190.3538
   9   1.0000      -6.995372      -190.3538
  10   1.0000      -4.703626      -127.9922
  11   1.0000      -3.112886       -84.7059
  12   1.0000      -3.112886       -84.7059
  13   1.0000      -3.108696       -84.5919
  14   1.0000      -0.731966       -19.9178
  15   1.0000      -0.452829       -12.3221
  16   1.0000      -0.448802       -12.2125
  17   1.0000      -0.448516       -12.2047
  18   1.0000      -0.448516       -12.2047
  19   1.0000      -0.448421       -12.2021
  20   1.0000      -0.337912        -9.1951
  21   1.0000      -0.273954        -7.4547
  22   1.0000      -0.273954        -7.4547
  23   1.0000      -0.212059        -5.7704
  24   0.0000      -0.059142        -1.6093
  25   0.0000      -0.059142        -1.6093
  26   0.0000      -0.006739        -0.1834
  27   0.0000      -0.001533        -0.0417
  28   0.0000       0.024851         0.6762

                 SPIN DOWN ORBITALS
  NO   OCC          E(Eh)            E(eV)
   0   1.0000    -346.339360     -9424.3731
   1   1.0000    -100.994664     -2748.2045
   2   1.0000     -41.792185     -1137.2232
   3   1.0000     -36.786935     -1001.0234
   4   1.0000     -36.786935     -1001.0234
   5   1.0000     -36.783435     -1000.9281
   6   1.0000      -9.221449      -250.9284
   7   1.0000      -6.998299      -190.4334
   8   1.0000      -6.994725      -190.3362
   9   1.0000      -6.994725      -190.3362
  10   1.0000      -4.703175      -127.9799
  11   1.0000      -3.111825       -84.6771
  12   1.0000      -3.111825       -84.6771
  13   1.0000      -3.108324       -84.5818
  14   1.0000      -0.724696       -19.7200
  15   1.0000      -0.446630       -12.1534
  16   1.0000      -0.444138       -12.0856
  17   1.0000      -0.443927       -12.0799
  18   1.0000      -0.443927       -12.0799
  19   1.0000      -0.443758       -12.0753
  20   1.0000      -0.323290        -8.7972
  21   1.0000      -0.271535        -7.3888
  22   1.0000      -0.271535        -7.3888
  23   0.0000      -0.164682        -4.4812
  24   0.0000      -0.033850        -0.9211
  25   0.0000      -0.033850        -0.9211
  26   0.0000       0.003393         0.0923
  27   0.0000       0.013510         0.3676

MULLIKEN ATOMIC CHARGES AND SPIN POPULATIONS
--------------------------------------------
   0 Zn:    0.499329    0.863718
   1 Cl:   -0.499329    0.136282
Sum of atomic charges         :    0.0000000

LOEWDIN ATOMIC CHARGES AND SPIN POPULATIONS
-------------------------------------------
   0 Zn:    0.220504    0.792300
   1 Cl:   -0.220504    0.207700

  Mayer bond orders larger than 0.100000
B(  0-Zn,  1-Cl) :   0.8283

Dispersion correction           -0.001530649
FINAL SINGLE POINT ENERGY     -2239.713322726402

DIPOLE MOMENT
-------------
                                X             Y             Z
Electronic contribution:      0.00000       0.00000      -2.98726
Nuclear contribution   :      0.00000       0.00000       1.94334
                        -----------------------------------------
Total Dipole Moment    :      0.00000       0.00000      -1.04393
                        -----------------------------------------
Magnitude (a.u.)       :      1.04393
Magnitude (Debye)      :      2.65345

Rotational constants in cm-1:     0.000000     0.156288     0.156288
Rotational constants in MHz :     0.000000  4685.390286  4685.390286

                             ****ORCA TERMINATED NORMALLY****
TOTAL RUN TIME: 0 days 0 hours 1 minutes 8 seconds 449 msec
