                         Program Version 4.2.0 -  RELEASE  -
|  1> #
|  2> # 58_ZnBr tpss/aug-cc-pvtz
|  3> #
|  4> ! tpss d3bj aug-cc-pvtz def2/j opt xyzfile
|  5>
|  6> *xyz 0 2
|  7> Zn 0.0 0.0 0.0
|  8> Br 0.0 0.0 2.0
|  9> *
| 10>
| 11> %pal
| 12> nprocs 24
| 13> end
| 14>
| 15>
| 16>                          ****END OF INPUT****
 Total Charge           Charge          ....    0
 Multiplicity           Mult            ....    2
 Number of Electrons    NEL             ....   65
Dispersion correction           -0.001717369
FINAL SINGLE POINT ENERGY     -4353.561627699675
Dispersion correction            ... done
Dispersion correction           -0.001717053
FINAL SINGLE POINT ENERGY     -4353.566771750377
Dispersion correction            ... done
Dispersion correction           -0.001717284
FINAL SINGLE POINT ENERGY     -4353.583539263863
Dispersion correction            ... done
FINAL SINGLE POINT ENERGY     -4353.586685746272
FINAL SINGLE POINT ENERGY     -4353.587326714858
Dispersion correction            ... done
Dispersion correction           -0.001726948
FINAL SINGLE POINT ENERGY     -4353.587366590054
Dispersion correction            ... done
Dispersion correction           -0.001727269
FINAL SINGLE POINT ENERGY     -4353.587366190902
Dispersion correction            ... done
                    ***********************HURRAY********************

CARTESIAN COORDINATES (ANGSTROEM)
---------------------------------
  Zn     0.000000    0.000000   -0.153906
  Br     0.000000    0.000000    2.153906

 Multiplicity           Mult            ....    2
 Number of Electrons    NEL             ....   65
 Basis Dimension        Dim             ....  152

ORBITAL ENERGIES
----------------
                 SPIN UP ORBITALS
  NO   OCC          E(Eh)            E(eV)
   0   1.0000    -481.722671    -13108.3403
   1   1.0000    -346.340494     -9424.4040
   2   1.0000     -61.935441     -1685.3490
   3   1.0000     -55.769604     -1517.5681
   4   1.0000     -55.767588     -1517.5132
   5   1.0000     -55.767588     -1517.5132
   6   1.0000     -41.792250     -1137.2249
   7   1.0000     -36.786776     -1001.0191
   8   1.0000     -36.786776     -1001.0191
   9   1.0000     -36.784890     -1000.9678
  10   1.0000      -8.462075      -230.2648
  11   1.0000      -6.303345      -171.5227
  12   1.0000      -6.296525      -171.3372
  13   1.0000      -6.296525      -171.3372
  14   1.0000      -4.703446      -127.9873
  15   1.0000      -3.112460       -84.6943
  16   1.0000      -3.112460       -84.6943
  17   1.0000      -3.108931       -84.5983
  18   1.0000      -2.471984       -67.2661
  19   1.0000      -2.469896       -67.2093
  20   1.0000      -2.469896       -67.2093
  21   1.0000      -2.464829       -67.0714
  22   1.0000      -2.464602       -67.0652
  23   1.0000      -0.696757       -18.9597
  24   1.0000      -0.450700       -12.2642
  25   1.0000      -0.448132       -12.1943
  26   1.0000      -0.447840       -12.1863
  27   1.0000      -0.447813       -12.1856
  28   1.0000      -0.447813       -12.1856
  29   1.0000      -0.329706        -8.9718
  30   1.0000      -0.259819        -7.0700
  31   1.0000      -0.259819        -7.0700
  32   1.0000      -0.208670        -5.6782
  33   0.0000      -0.060555        -1.6478
  34   0.0000      -0.060555        -1.6478
  35   0.0000      -0.009360        -0.2547
  36   0.0000      -0.003106        -0.0845
  37   0.0000       0.023239         0.6324

                 SPIN DOWN ORBITALS
  NO   OCC          E(Eh)            E(eV)
   0   1.0000    -481.722175    -13108.3268
   1   1.0000    -346.339566     -9424.3787
   2   1.0000     -61.935282     -1685.3447
   3   1.0000     -55.768690     -1517.5432
   4   1.0000     -55.767422     -1517.5087
   5   1.0000     -55.767422     -1517.5087
   6   1.0000     -41.792446     -1137.2303
   7   1.0000     -36.787006     -1001.0253
   8   1.0000     -36.787006     -1001.0253
   9   1.0000     -36.784093     -1000.9461
  10   1.0000      -8.461389      -230.2461
  11   1.0000      -6.301703      -171.4780
  12   1.0000      -6.296182      -171.3278
  13   1.0000      -6.296182      -171.3278
  14   1.0000      -4.703061      -127.9768
  15   1.0000      -3.111508       -84.6684
  16   1.0000      -3.111508       -84.6684
  17   1.0000      -3.108584       -84.5889
  18   1.0000      -2.470210       -67.2178
  19   1.0000      -2.468518       -67.1718
  20   1.0000      -2.468518       -67.1718
  21   1.0000      -2.464587       -67.0648
  22   1.0000      -2.464362       -67.0587
  23   1.0000      -0.689691       -18.7674
  24   1.0000      -0.444944       -12.1075
  25   1.0000      -0.443718       -12.0742
  26   1.0000      -0.443421       -12.0661
  27   1.0000      -0.443382       -12.0650
  28   1.0000      -0.443382       -12.0650
  29   1.0000      -0.315018        -8.5721
  30   1.0000      -0.257089        -6.9957
  31   1.0000      -0.257089        -6.9957
  32   0.0000      -0.163119        -4.4387
  33   0.0000      -0.036367        -0.9896
  34   0.0000      -0.036366        -0.9896
  35   0.0000      -0.000033        -0.0009
  36   0.0000       0.011014         0.2997

MULLIKEN ATOMIC CHARGES AND SPIN POPULATIONS
--------------------------------------------
   0 Zn:    0.434362    0.822297
   1 Br:   -0.434362    0.177703
Sum of atomic charges         :    0.0000000

LOEWDIN ATOMIC CHARGES AND SPIN POPULATIONS
-------------------------------------------
   0 Zn:    0.158184    0.764038
   1 Br:   -0.158184    0.235962

  Mayer bond orders larger than 0.100000
B(  0-Zn,  1-Br) :   0.8666

Dispersion correction           -0.001727282
FINAL SINGLE POINT ENERGY     -4353.587366419383

DIPOLE MOMENT
-------------
                                X             Y             Z
Electronic contribution:     -0.00000       0.00000       2.28291
Nuclear contribution   :      0.00000       0.00000      -3.26305
                        -----------------------------------------
Total Dipole Moment    :     -0.00000       0.00000      -0.98014
                        -----------------------------------------
Magnitude (a.u.)       :      0.98014
Magnitude (Debye)      :      2.49131

Rotational constants in cm-1:     0.000000     0.088026     0.088026
Rotational constants in MHz :     0.000000  2638.947188  2638.947188

                             ****ORCA TERMINATED NORMALLY****
TOTAL RUN TIME: 0 days 0 hours 1 minutes 32 seconds 386 msec
