                         Program Version 4.2.0 -  RELEASE  -
|  1> #
|  2> # 59_ZnO tpss/aug-cc-pvtz
|  3> #
|  4> ! tpss d3bj aug-cc-pvtz def2/j opt xyzfile
|  5>
|  6> *xyz 0 1
|  7> Zn 0.0 0.0 0.0
|  8> O 0.0 0.0 2.0
|  9> *
| 10>
| 11> %pal
| 12> nprocs 24
| 13> end
| 14>
| 15>
| 16>                          ****END OF INPUT****
 Total Charge           Charge          ....    0
 Multiplicity           Mult            ....    1
 Number of Electrons    NEL             ....   38
Dispersion correction           -0.000808992
FINAL SINGLE POINT ENERGY     -1854.589986273249
Dispersion correction            ... done
Dispersion correction           -0.000780119
FINAL SINGLE POINT ENERGY     -1854.597673237683
Dispersion correction            ... done
Dispersion correction           -0.000744724
FINAL SINGLE POINT ENERGY     -1854.613526098756
Dispersion correction            ... done
FINAL SINGLE POINT ENERGY     -1854.612826170003
FINAL SINGLE POINT ENERGY     -1854.616267280969
Dispersion correction            ... done
Dispersion correction           -0.000740196
FINAL SINGLE POINT ENERGY     -1854.616374704581
Dispersion correction            ... done
Dispersion correction           -0.000740090
FINAL SINGLE POINT ENERGY     -1854.616379851061
Dispersion correction            ... done
                    ***********************HURRAY********************

CARTESIAN COORDINATES (ANGSTROEM)
---------------------------------
  Zn     0.000000    0.000000    0.149918
  O      0.000000    0.000000    1.850082

 Multiplicity           Mult            ....    1
 Number of Electrons    NEL             ....   38
 Basis Dimension        Dim             ....  139

ORBITAL ENERGIES
----------------

  NO   OCC          E(Eh)            E(eV)
   0   2.0000    -346.349537     -9424.6500
   1   2.0000     -41.803790     -1137.5389
   2   2.0000     -36.798366     -1001.3345
   3   2.0000     -36.798366     -1001.3345
   4   2.0000     -36.795258     -1001.2499
   5   2.0000     -18.853486      -513.0294
   6   2.0000      -4.714925      -128.2996
   7   2.0000      -3.123838       -85.0040
   8   2.0000      -3.121358       -84.9365
   9   2.0000      -3.121358       -84.9365
  10   2.0000      -0.800688       -21.7878
  11   2.0000      -0.460157       -12.5215
  12   2.0000      -0.460157       -12.5215
  13   2.0000      -0.459503       -12.5037
  14   2.0000      -0.453148       -12.3308
  15   2.0000      -0.453038       -12.3278
  16   2.0000      -0.282201        -7.6791
  17   2.0000      -0.211398        -5.7524
  18   2.0000      -0.211398        -5.7524
  19   0.0000      -0.179001        -4.8709
  20   0.0000      -0.035626        -0.9694
  21   0.0000      -0.035626        -0.9694
  22   0.0000      -0.000288        -0.0078
  23   0.0000       0.011894         0.3236

MULLIKEN ATOMIC CHARGES
-----------------------
   0 Zn:    0.798993
   1 O :   -0.798993
Sum of atomic charges:   -0.0000000

LOEWDIN ATOMIC CHARGES
----------------------
   0 Zn:    0.682057
   1 O :   -0.682057

  Mayer bond orders larger than 0.100000
B(  0-Zn,  1-O ) :   1.6145

Dispersion correction           -0.000740094
FINAL SINGLE POINT ENERGY     -1854.616379861409

DIPOLE MOMENT
-------------
                                X             Y             Z
Electronic contribution:      0.00000       0.00000      -3.87700
Nuclear contribution   :      0.00000       0.00000       1.70040
                        -----------------------------------------
Total Dipole Moment    :      0.00000       0.00000      -2.17660
                        -----------------------------------------
Magnitude (a.u.)       :      2.17660
Magnitude (Debye)      :      5.53247

Rotational constants in cm-1:     0.000000     0.453722     0.453722
Rotational constants in MHz :     0.000000 13602.247054 13602.247054

                             ****ORCA TERMINATED NORMALLY****
TOTAL RUN TIME: 0 days 0 hours 1 minutes 17 seconds 898 msec
