                         Program Version 4.2.0 -  RELEASE  -
|  1> #
|  2> # 60_ZnS tpss/aug-cc-pvtz
|  3> #
|  4> ! tpss d3bj aug-cc-pvtz def2/j opt xyzfile
|  5>
|  6> *xyz 0 1
|  7> Zn 0.0 0.0 0.0
|  8> S 0.0 0.0 2.0
|  9> *
| 10>
| 11> %pal
| 12> nprocs 24
| 13> end
| 14>
| 15>
| 16>                          ****END OF INPUT****
 Total Charge           Charge          ....    0
 Multiplicity           Mult            ....    1
 Number of Electrons    NEL             ....   46
Dispersion correction           -0.001731817
FINAL SINGLE POINT ENERGY     -2177.651816349725
Dispersion correction            ... done
Dispersion correction           -0.001731879
FINAL SINGLE POINT ENERGY     -2177.652027627008
Dispersion correction            ... done
Dispersion correction           -0.001732745
FINAL SINGLE POINT ENERGY     -2177.652792320125
Dispersion correction            ... done
Dispersion correction           -0.001732915
FINAL SINGLE POINT ENERGY     -2177.652799613709
Dispersion correction            ... done
Dispersion correction           -0.001732937
FINAL SINGLE POINT ENERGY     -2177.652799327083
Dispersion correction            ... done
                    ***********************HURRAY********************

CARTESIAN COORDINATES (ANGSTROEM)
---------------------------------
  Zn     0.000000    0.000000   -0.027570
  S      0.000000    0.000000    2.027570

 Multiplicity           Mult            ....    1
 Number of Electrons    NEL             ....   46
 Basis Dimension        Dim             ....  143

ORBITAL ENERGIES
----------------

  NO   OCC          E(Eh)            E(eV)
   0   2.0000    -346.361320     -9424.9707
   1   2.0000     -88.358770     -2404.3644
   2   2.0000     -41.814924     -1137.8419
   3   2.0000     -36.808975     -1001.6231
   4   2.0000     -36.808975     -1001.6231
   5   2.0000     -36.807648     -1001.5870
   6   2.0000      -7.711667      -209.8451
   7   2.0000      -5.696663      -155.0141
   8   2.0000      -5.685985      -154.7235
   9   2.0000      -5.685985      -154.7235
  10   2.0000      -4.725553      -128.5888
  11   2.0000      -3.135587       -85.3237
  12   2.0000      -3.131647       -85.2164
  13   2.0000      -3.131647       -85.2164
  14   2.0000      -0.603685       -16.4271
  15   2.0000      -0.470178       -12.7942
  16   2.0000      -0.470178       -12.7942
  17   2.0000      -0.465250       -12.6601
  18   2.0000      -0.463312       -12.6074
  19   2.0000      -0.463031       -12.5997
  20   2.0000      -0.293288        -7.9808
  21   2.0000      -0.203348        -5.5334
  22   2.0000      -0.203348        -5.5334
  23   0.0000      -0.175360        -4.7718
  24   0.0000      -0.043897        -1.1945
  25   0.0000      -0.043897        -1.1945
  26   0.0000      -0.001994        -0.0543
  27   0.0000       0.006196         0.1686

MULLIKEN ATOMIC CHARGES
-----------------------
   0 Zn:    0.506559
   1 S :   -0.506559
Sum of atomic charges:   -0.0000000

LOEWDIN ATOMIC CHARGES
----------------------
   0 Zn:    0.311993
   1 S :   -0.311993

  Mayer bond orders larger than 0.100000
B(  0-Zn,  1-S ) :   1.6828

Dispersion correction           -0.001732937
FINAL SINGLE POINT ENERGY     -2177.652799263734

DIPOLE MOMENT
-------------
                                X             Y             Z
Electronic contribution:     -0.00000      -0.00000      -5.42767
Nuclear contribution   :      0.00000       0.00000       3.35914
                        -----------------------------------------
Total Dipole Moment    :     -0.00000      -0.00000      -2.06853
                        -----------------------------------------
Magnitude (a.u.)       :      2.06853
Magnitude (Debye)      :      5.25778

Rotational constants in cm-1:     0.000000     0.185542     0.185542
Rotational constants in MHz :     0.000000  5562.415993  5562.415993

                             ****ORCA TERMINATED NORMALLY****
TOTAL RUN TIME: 0 days 0 hours 0 minutes 57 seconds 121 msec
